                         Program Version 3.0.3 - RELEASE   -
|  1> ! RI PBE def2-SVP def2-SVP/J NBO PAL2
|  2> % maxcore 2000
|  3> % output
|  4>     # printlevel mini
|  5>     print[ P_Basis ] 0
|  6>     print[ P_SCFInfo ] 1
|  7>     print[ P_SCFIterInfo ] 1
|  8>     print[ P_OrbEn ] 0
|  9>     print[ P_Cartesian ] 0
| 10> end
| 11> *xyz 0 1
| 12>  C        3.4199130000    -1.0188930000    -0.7457650000
| 13>  N        3.2347030000    -0.4847320000     0.5911410000
| 14>  C        3.1811830000     0.9557040000     0.6311110000
| 15>  C        2.5810410000     1.4564270000     1.9159950000
| 16>  C        1.7507950000     2.4838960000     2.0156500000
| 17>  C        4.5469490000     1.6304470000     0.5086000000
| 18>  O        5.5867820000     1.0435620000     0.6206690000
| 19>  H        3.5045960000    -2.1052780000    -0.6879500000
| 20>  H        4.3073620000    -0.6352480000    -1.2694600000
| 21>  H        2.5387820000    -0.7916410000    -1.3522280000
| 22>  H        4.0039060000    -0.7900200000     1.1778830000
| 23>  H        2.5674090000     1.3190050000    -0.2024110000
| 24>  H        2.9062710000     0.9274400000     2.8089230000
| 25>  H        1.4062180000     3.0257060000     1.1402090000
| 26>  H        1.3739930000     2.8143950000     2.9763760000
| 27>  H        4.5186090000     2.7305200000     0.3544360000
| 28> *
| 29>
| 30>                          ****END OF INPUT****
 Total Charge           Charge          ....    0
 Multiplicity           Mult            ....    1
 Number of Electrons    NEL             ....   54
 Basis Dimension        Dim             ....  143

MULLIKEN ATOMIC CHARGES
-----------------------
   0 C :    0.052243
   1 N :   -0.216641
   2 C :    0.014120
   3 C :   -0.023588
   4 C :   -0.017224
   5 C :    0.117022
   6 O :   -0.156577
   7 H :    0.031749
   8 H :    0.008700
   9 H :    0.023114
  10 H :    0.100952
  11 H :    0.015416
  12 H :    0.012192
  13 H :    0.020826
  14 H :    0.030317
  15 H :   -0.012620
Sum of atomic charges:   -0.0000000

LOEWDIN ATOMIC CHARGES
----------------------
   0 C :   -0.006574
   1 N :   -0.084046
   2 C :   -0.039765
   3 C :   -0.016827
   4 C :   -0.051780
   5 C :    0.087574
   6 O :   -0.103479
   7 H :    0.027382
   8 H :    0.002445
   9 H :    0.021865
  10 H :    0.052138
  11 H :    0.037676
  12 H :    0.031155
  13 H :    0.023471
  14 H :    0.029470
  15 H :   -0.010705

  Mayer bond orders larger than 0.1
B(  0-C ,  1-N ) :   1.0550 B(  0-C ,  7-H ) :   0.9730 B(  0-C ,  8-H ) :   0.9480
B(  0-C ,  9-H ) :   0.9667 B(  1-N ,  2-C ) :   1.0697 B(  1-N , 10-H ) :   0.9336
B(  2-C ,  3-C ) :   0.9974 B(  2-C ,  5-C ) :   0.8679 B(  2-C , 11-H ) :   0.8950
B(  3-C ,  4-C ) :   1.9991 B(  3-C , 12-H ) :   0.9495 B(  4-C , 13-H ) :   0.9471
B(  4-C , 14-H ) :   0.9384 B(  5-C ,  6-O ) :   2.1734 B(  5-C , 15-H ) :   0.9149

FINAL SINGLE POINT ENERGY      -325.222169298309

DIPOLE MOMENT
-------------
                                X             Y             Z
Electronic contribution:      3.68596       1.23211       1.63464
Nuclear contribution   :     -4.15839      -0.94661      -1.76381
                        -----------------------------------------
Total Dipole Moment    :     -0.47243       0.28550      -0.12917
                        -----------------------------------------
Magnitude (a.u.)       :      0.56691
Magnitude (Debye)      :      1.44098

                             ****ORCA TERMINATED NORMALLY****
TOTAL RUN TIME: 0 days 0 hours 0 minutes 7 seconds 501 msec
