                         Program Version 3.0.3 - RELEASE   -
|  1> ! RI PBE def2-SVP def2-SVP/J NBO PAL2
|  2> % maxcore 2000
|  3> % output
|  4>     # printlevel mini
|  5>     print[ P_Basis ] 0
|  6>     print[ P_SCFInfo ] 1
|  7>     print[ P_SCFIterInfo ] 1
|  8>     print[ P_OrbEn ] 0
|  9>     print[ P_Cartesian ] 0
| 10> end
| 11> *xyz 0 1
| 12>  C        0.8895870000    -0.1563560000    -0.1162750000
| 13>  N        2.2829880000    -0.4646720000     0.1404380000
| 14>  C        2.8386220000     0.1445340000     1.3514140000
| 15>  C        2.1104590000    -0.3562690000     2.5885810000
| 16>  C        4.3403830000    -0.1416780000     1.4028740000
| 17>  C        4.7104530000    -1.6079650000     1.5690080000
| 18>  O        4.2624760000    -2.4183680000     0.5097870000
| 19>  H        0.6233850000    -0.4982800000    -1.1176530000
| 20>  H        0.6625420000     0.9194190000    -0.0457850000
| 21>  H        0.2452660000    -0.6826850000     0.5897390000
| 22>  H        2.8387720000    -0.1535860000    -0.6482330000
| 23>  H        2.7099140000     1.2418900000     1.3149990000
| 24>  H        2.0944160000    -1.4481750000     2.6220300000
| 25>  H        1.0783640000    -0.0026590000     2.6171910000
| 26>  H        2.6067480000     0.0085690000     3.4905770000
| 27>  H        4.7736160000     0.4275870000     2.2321320000
| 28>  H        4.8063130000     0.2392670000     0.4855460000
| 29>  H        4.3315900000    -1.9784860000     2.5337550000
| 30>  H        5.8001250000    -1.7002710000     1.6068600000
| 31>  H        3.3705700000    -2.1015160000     0.2852160000
| 32> *
| 33>
| 34>                          ****END OF INPUT****
 Total Charge           Charge          ....    0
 Multiplicity           Mult            ....    1
 Number of Electrons    NEL             ....   58
 Basis Dimension        Dim             ....  163

MULLIKEN ATOMIC CHARGES
-----------------------
   0 C :    0.069666
   1 N :   -0.257654
   2 C :   -0.062202
   3 C :    0.014893
   4 C :   -0.031254
   5 C :    0.193294
   6 O :   -0.304224
   7 H :    0.024114
   8 H :    0.002327
   9 H :    0.033841
  10 H :    0.114242
  11 H :   -0.003410
  12 H :    0.038259
  13 H :    0.018979
  14 H :    0.020146
  15 H :    0.009780
  16 H :    0.007597
  17 H :   -0.021319
  18 H :    0.005359
  19 H :    0.127567
Sum of atomic charges:   -0.0000000

LOEWDIN ATOMIC CHARGES
----------------------
   0 C :   -0.003660
   1 N :   -0.076169
   2 C :   -0.000206
   3 C :   -0.065949
   4 C :   -0.062756
   5 C :    0.054653
   6 O :   -0.141216
   7 H :    0.026780
   8 H :    0.004455
   9 H :    0.023495
  10 H :    0.058447
  11 H :    0.005781
  12 H :    0.030387
  13 H :    0.025662
  14 H :    0.031613
  15 H :    0.031047
  16 H :    0.021372
  17 H :   -0.003234
  18 H :    0.016850
  19 H :    0.022650

  Mayer bond orders larger than 0.1
B(  0-C ,  1-N ) :   1.0531 B(  0-C ,  7-H ) :   0.9699 B(  0-C ,  8-H ) :   0.9454
B(  0-C ,  9-H ) :   0.9673 B(  1-N ,  2-C ) :   1.0039 B(  1-N , 10-H ) :   0.9272
B(  1-N , 19-H ) :   0.1502 B(  2-C ,  3-C ) :   1.0786 B(  2-C ,  4-C ) :   1.0700
B(  2-C , 11-H ) :   0.9065 B(  3-C , 12-H ) :   0.9511 B(  3-C , 13-H ) :   0.9498
B(  3-C , 14-H ) :   0.9565 B(  4-C ,  5-C ) :   1.0766 B(  4-C , 15-H ) :   0.9144
B(  4-C , 16-H ) :   0.9248 B(  5-C ,  6-O ) :   1.0923 B(  5-C , 17-H ) :   0.9216
B(  5-C , 18-H ) :   0.9364 B(  6-O , 19-H ) :   0.9379

FINAL SINGLE POINT ENERGY      -327.651542723991

DIPOLE MOMENT
-------------
                                X             Y             Z
Electronic contribution:      2.96174      -2.64619      -2.15645
Nuclear contribution   :     -3.53491       3.63537       2.21748
                        -----------------------------------------
Total Dipole Moment    :     -0.57317       0.98917       0.06103
                        -----------------------------------------
Magnitude (a.u.)       :      1.14486
Magnitude (Debye)      :      2.91001

                             ****ORCA TERMINATED NORMALLY****
TOTAL RUN TIME: 0 days 0 hours 0 minutes 8 seconds 945 msec
