                         Program Version 3.0.3 - RELEASE   -
|  1> ! RI PBE def2-SVP def2-SVP/J NBO PAL2
|  2> % maxcore 2000
|  3> % output
|  4>     # printlevel mini
|  5>     print[ P_Basis ] 0
|  6>     print[ P_SCFInfo ] 1
|  7>     print[ P_SCFIterInfo ] 1
|  8>     print[ P_OrbEn ] 0
|  9>     print[ P_Cartesian ] 0
| 10> end
| 11> *xyz 0 1
| 12>  C        2.9206810000    -1.0072400000     0.0300730000
| 13>  N        2.3578860000     0.2749360000    -0.2910220000
| 14>  C        3.0905250000     1.3818930000    -0.5355920000
| 15>  C        2.2777830000     2.6063600000    -0.8497230000
| 16>  C        4.4534450000     1.3707500000    -0.4963000000
| 17>  C        5.2621180000     2.5294840000    -0.7511720000
| 18>  O        6.4772710000     2.5488250000    -0.7231450000
| 19>  H        2.1128230000    -1.7223040000     0.1790080000
| 20>  H        3.5178760000    -0.9615600000     0.9465060000
| 21>  H        3.5641740000    -1.3727770000    -0.7766970000
| 22>  H        1.3593610000     0.3560050000    -0.3372060000
| 23>  H        1.2092670000     2.3833690000    -0.8249440000
| 24>  H        2.5151030000     2.9925720000    -1.8414570000
| 25>  H        2.4694390000     3.4016590000    -0.1287680000
| 26>  H        4.9909720000     0.4591810000    -0.2642480000
| 27>  H        4.7092670000     3.4644760000    -0.9892100000
| 28> *
| 29>
| 30>                          ****END OF INPUT****
 Total Charge           Charge          ....    0
 Multiplicity           Mult            ....    1
 Number of Electrons    NEL             ....   54
 Basis Dimension        Dim             ....  143

MULLIKEN ATOMIC CHARGES
-----------------------
   0 C :    0.072191
   1 N :   -0.125746
   2 C :   -0.066420
   3 C :    0.043705
   4 C :   -0.090980
   5 C :    0.098734
   6 O :   -0.216089
   7 H :    0.033615
   8 H :    0.046935
   9 H :    0.048470
  10 H :    0.109315
  11 H :    0.007473
  12 H :    0.060830
  13 H :    0.064952
  14 H :   -0.026265
  15 H :   -0.060720
Sum of atomic charges:   -0.0000000

LOEWDIN ATOMIC CHARGES
----------------------
   0 C :    0.009344
   1 N :    0.028610
   2 C :    0.027611
   3 C :   -0.061813
   4 C :   -0.171390
   5 C :    0.041381
   6 O :   -0.167323
   7 H :    0.032993
   8 H :    0.030852
   9 H :    0.030773
  10 H :    0.072200
  11 H :    0.027672
  12 H :    0.048760
  13 H :    0.049255
  14 H :    0.025636
  15 H :   -0.024562

  Mayer bond orders larger than 0.1
B(  0-C ,  1-N ) :   1.0357 B(  0-C ,  7-H ) :   0.9663 B(  0-C ,  8-H ) :   0.9566
B(  0-C ,  9-H ) :   0.9578 B(  1-N ,  2-C ) :   1.2859 B(  1-N , 10-H ) :   0.9290
B(  2-C ,  3-C ) :   1.0919 B(  2-C ,  4-C ) :   1.5159 B(  3-C , 11-H ) :   0.9416
B(  3-C , 12-H ) :   0.9375 B(  3-C , 13-H ) :   0.9385 B(  4-C ,  5-C ) :   1.1269
B(  4-C , 14-H ) :   0.9484 B(  5-C ,  6-O ) :   2.0510 B(  5-C , 15-H ) :   0.9200

FINAL SINGLE POINT ENERGY      -325.261035578333

DIPOLE MOMENT
-------------
                                X             Y             Z
Electronic contribution:      5.08205       2.21694      -0.39112
Nuclear contribution   :     -7.48534      -3.15831       0.55259
                        -----------------------------------------
Total Dipole Moment    :     -2.40329      -0.94137       0.16147
                        -----------------------------------------
Magnitude (a.u.)       :      2.58613
Magnitude (Debye)      :      6.57342

                             ****ORCA TERMINATED NORMALLY****
TOTAL RUN TIME: 0 days 0 hours 0 minutes 7 seconds 838 msec
