                         Program Version 3.0.3 - RELEASE   -
|  1> ! RI PBE def2-SVP def2-SVP/J NBO PAL2
|  2> % maxcore 2000
|  3> % output
|  4>     # printlevel mini
|  5>     print[ P_Basis ] 0
|  6>     print[ P_SCFInfo ] 1
|  7>     print[ P_SCFIterInfo ] 1
|  8>     print[ P_OrbEn ] 0
|  9>     print[ P_Cartesian ] 0
| 10> end
| 11> *xyz 0 1
| 12>  C        3.2456630000     0.5898050000    -0.3931340000
| 13>  N        2.9090990000    -0.2167380000     0.7628300000
| 14>  C        3.0231240000    -1.6755190000     0.6363840000
| 15>  C        2.2988250000    -2.2787510000     1.8328160000
| 16>  C        2.4491850000    -2.2420740000    -0.6584020000
| 17>  C        4.5217700000    -2.0041850000     0.7229770000
| 18>  O        5.1232140000    -1.3643420000     1.8151330000
| 19>  H        3.1639680000     1.6445210000    -0.1232030000
| 20>  H        2.6133720000     0.4145630000    -1.2742770000
| 21>  H        4.2830370000     0.4122490000    -0.6855400000
| 22>  H        1.9894440000     0.0260000000     1.1056040000
| 23>  H        1.2389040000    -2.0054240000     1.8228720000
| 24>  H        2.7414650000    -1.9291580000     2.7668330000
| 25>  H        2.3615100000    -3.3683210000     1.8107180000
| 26>  H        1.3854810000    -2.0055720000    -0.7508100000
| 27>  H        2.5518540000    -3.3301640000    -0.6746450000
| 28>  H        2.9634630000    -1.8502330000    -1.5388270000
| 29>  H        5.0132810000    -1.7170700000    -0.2201060000
| 30>  H        4.6543260000    -3.0840280000     0.8393370000
| 31>  H        4.6299260000    -0.5317690000     1.8980200000
| 32> *
| 33>
| 34>                          ****END OF INPUT****
 Total Charge           Charge          ....    0
 Multiplicity           Mult            ....    1
 Number of Electrons    NEL             ....   58
 Basis Dimension        Dim             ....  163

MULLIKEN ATOMIC CHARGES
-----------------------
   0 C :    0.060122
   1 N :   -0.231000
   2 C :   -0.328856
   3 C :    0.066292
   4 C :    0.064811
   5 C :    0.266805
   6 O :   -0.280250
   7 H :    0.028718
   8 H :    0.011555
   9 H :    0.029039
  10 H :    0.100797
  11 H :    0.010220
  12 H :    0.015157
  13 H :    0.020811
  14 H :    0.011466
  15 H :    0.020748
  16 H :    0.014573
  17 H :   -0.019401
  18 H :   -0.001313
  19 H :    0.139710
Sum of atomic charges:    0.0000000

LOEWDIN ATOMIC CHARGES
----------------------
   0 C :   -0.006793
   1 N :   -0.080459
   2 C :   -0.045017
   3 C :   -0.054017
   4 C :   -0.063714
   5 C :    0.056429
   6 O :   -0.125398
   7 H :    0.026366
   8 H :    0.004690
   9 H :    0.024376
  10 H :    0.055067
  11 H :    0.020329
  12 H :    0.025239
  13 H :    0.030541
  14 H :    0.024791
  15 H :    0.030905
  16 H :    0.023122
  17 H :   -0.004260
  18 H :    0.016227
  19 H :    0.041578

  Mayer bond orders larger than 0.1
B(  0-C ,  1-N ) :   1.0468 B(  0-C ,  7-H ) :   0.9699 B(  0-C ,  8-H ) :   0.9461
B(  0-C ,  9-H ) :   0.9675 B(  1-N ,  2-C ) :   1.0337 B(  1-N , 10-H ) :   0.9385
B(  1-N , 19-H ) :   0.1111 B(  2-C ,  3-C ) :   1.0450 B(  2-C ,  4-C ) :   1.0449
B(  2-C ,  5-C ) :   0.9998 B(  3-C , 11-H ) :   0.9524 B(  3-C , 12-H ) :   0.9449
B(  3-C , 13-H ) :   0.9593 B(  4-C , 14-H ) :   0.9484 B(  4-C , 15-H ) :   0.9517
B(  4-C , 16-H ) :   0.9406 B(  5-C ,  6-O ) :   1.1067 B(  5-C , 17-H ) :   0.9109
B(  5-C , 18-H ) :   0.9328 B(  6-O , 19-H ) :   0.9437

FINAL SINGLE POINT ENERGY      -327.651742826313

DIPOLE MOMENT
-------------
                                X             Y             Z
Electronic contribution:      3.22854       0.70455       3.10268
Nuclear contribution   :     -4.12379      -0.43758      -3.64343
                        -----------------------------------------
Total Dipole Moment    :     -0.89525       0.26697      -0.54075
                        -----------------------------------------
Magnitude (a.u.)       :      1.07943
Magnitude (Debye)      :      2.74368

                             ****ORCA TERMINATED NORMALLY****
TOTAL RUN TIME: 0 days 0 hours 0 minutes 9 seconds 66 msec
