                         Program Version 3.0.3 - RELEASE   -
|  1> ! RI PBE def2-SVP def2-SVP/J NBO PAL2
|  2> % maxcore 2000
|  3> % output
|  4>     # printlevel mini
|  5>     print[ P_Basis ] 0
|  6>     print[ P_SCFInfo ] 1
|  7>     print[ P_SCFIterInfo ] 1
|  8>     print[ P_OrbEn ] 0
|  9>     print[ P_Cartesian ] 0
| 10> end
| 11> *xyz 0 1
| 12>  C        3.0568940000     1.2537630000     0.0776870000
| 13>  N        2.7962150000    -0.1671560000    -0.0216210000
| 14>  C        3.1179650000    -0.8015970000    -1.2918110000
| 15>  C        2.6181850000    -2.2451710000    -1.2171560000
| 16>  C        2.5751390000    -0.1086680000    -2.5344830000
| 17>  C        4.6371200000    -0.9032470000    -1.3420810000
| 18>  O        5.3175910000    -0.6976940000    -2.3070920000
| 19>  H        2.8682930000     1.5796400000     1.1023620000
| 20>  H        2.4587790000     1.8828750000    -0.5965360000
| 21>  H        4.1111590000     1.4524670000    -0.1349460000
| 22>  H        1.8404260000    -0.3760190000     0.2355920000
| 23>  H        1.5289270000    -2.2503950000    -1.1135850000
| 24>  H        3.0442760000    -2.7595510000    -0.3528660000
| 25>  H        2.8746690000    -2.7960330000    -2.1232780000
| 26>  H        1.4832210000    -0.0707520000    -2.4969130000
| 27>  H        2.8755530000    -0.6459670000    -3.4348570000
| 28>  H        2.9565510000     0.9092210000    -2.6250920000
| 29>  H        5.0787380000    -1.2159280000    -0.3701130000
| 30> *
| 31>
| 32>                          ****END OF INPUT****
 Total Charge           Charge          ....    0
 Multiplicity           Mult            ....    1
 Number of Electrons    NEL             ....   56
 Basis Dimension        Dim             ....  153

MULLIKEN ATOMIC CHARGES
-----------------------
   0 C :    0.069774
   1 N :   -0.223397
   2 C :   -0.262131
   3 C :    0.032863
   4 C :    0.087521
   5 C :    0.155708
   6 O :   -0.146227
   7 H :    0.023841
   8 H :    0.009178
   9 H :    0.026893
  10 H :    0.096949
  11 H :    0.026589
  12 H :    0.030564
  13 H :    0.035288
  14 H :    0.008864
  15 H :    0.021326
  16 H :    0.021891
  17 H :   -0.015494
Sum of atomic charges:   -0.0000000

LOEWDIN ATOMIC CHARGES
----------------------
   0 C :   -0.004518
   1 N :   -0.085977
   2 C :   -0.067706
   3 C :   -0.044856
   4 C :   -0.060501
   5 C :    0.093632
   6 O :   -0.102876
   7 H :    0.025535
   8 H :    0.002504
   9 H :    0.024506
  10 H :    0.053365
  11 H :    0.028900
  12 H :    0.030259
  13 H :    0.034495
  14 H :    0.024452
  15 H :    0.032031
  16 H :    0.028641
  17 H :   -0.011888

  Mayer bond orders larger than 0.1
B(  0-C ,  1-N ) :   1.0582 B(  0-C ,  7-H ) :   0.9699 B(  0-C ,  8-H ) :   0.9466
B(  0-C ,  9-H ) :   0.9645 B(  1-N ,  2-C ) :   1.0306 B(  1-N , 10-H ) :   0.9373
B(  2-C ,  3-C ) :   1.0389 B(  2-C ,  4-C ) :   1.0414 B(  2-C ,  5-C ) :   0.8753
B(  3-C , 11-H ) :   0.9486 B(  3-C , 12-H ) :   0.9523 B(  3-C , 13-H ) :   0.9584
B(  4-C , 14-H ) :   0.9527 B(  4-C , 15-H ) :   0.9403 B(  4-C , 16-H ) :   0.9452
B(  5-C ,  6-O ) :   2.2105 B(  5-C , 17-H ) :   0.9222

FINAL SINGLE POINT ENERGY      -326.449553105382

DIPOLE MOMENT
-------------
                                X             Y             Z
Electronic contribution:      5.29273      -1.21194      -1.11011
Nuclear contribution   :     -6.26948       1.23018       1.56860
                        -----------------------------------------
Total Dipole Moment    :     -0.97675       0.01824       0.45849
                        -----------------------------------------
Magnitude (a.u.)       :      1.07916
Magnitude (Debye)      :      2.74301

                             ****ORCA TERMINATED NORMALLY****
TOTAL RUN TIME: 0 days 0 hours 0 minutes 8 seconds 593 msec
