                         Program Version 3.0.3 - RELEASE   -
|  1> ! RI PBE def2-SVP def2-SVP/J NBO PAL2
|  2> % maxcore 2000
|  3> % output
|  4>     # printlevel mini
|  5>     print[ P_Basis ] 0
|  6>     print[ P_SCFInfo ] 1
|  7>     print[ P_SCFIterInfo ] 1
|  8>     print[ P_OrbEn ] 0
|  9>     print[ P_Cartesian ] 0
| 10> end
| 11> *xyz 0 1
| 12>  C        1.7619160000     1.2686860000    -1.3283440000
| 13>  N        3.1211130000     0.7752340000    -1.4228790000
| 14>  C        3.2705260000    -0.6556890000    -1.6762770000
| 15>  C        2.5825900000    -1.0556880000    -2.9687490000
| 16>  C        4.7825190000    -0.9156210000    -1.6986190000
| 17>  C        5.1687780000    -2.3545150000    -1.9434890000
| 18>  O        5.4008780000    -0.1139470000    -2.6801720000
| 19>  H        1.7804340000     2.2969390000    -0.9628360000
| 20>  H        1.1231110000     0.6761230000    -0.6538250000
| 21>  H        1.2889330000     1.2833450000    -2.3114010000
| 22>  H        3.6073280000     0.9910460000    -0.5597850000
| 23>  H        2.8402530000    -1.2550100000    -0.8531870000
| 24>  H        3.0013830000    -0.5083470000    -3.8155700000
| 25>  H        1.5099150000    -0.8608210000    -2.9251310000
| 26>  H        2.7077210000    -2.1233880000    -3.1531330000
| 27>  H        5.1595660000    -0.6275560000    -0.6996560000
| 28>  H        4.8865810000    -2.6676600000    -2.9499990000
| 29>  H        4.6885560000    -3.0159210000    -1.2180460000
| 30>  H        6.2499380000    -2.4686770000    -1.8495940000
| 31>  H        4.9279600000     0.7299780000    -2.6510070000
| 32> *
| 33>
| 34>                          ****END OF INPUT****
 Total Charge           Charge          ....    0
 Multiplicity           Mult            ....    1
 Number of Electrons    NEL             ....   58
 Basis Dimension        Dim             ....  163

MULLIKEN ATOMIC CHARGES
-----------------------
   0 C :    0.067592
   1 N :   -0.256056
   2 C :   -0.042877
   3 C :    0.027124
   4 C :    0.067728
   5 C :    0.032604
   6 O :   -0.265415
   7 H :    0.021152
   8 H :    0.001831
   9 H :    0.032886
  10 H :    0.103048
  11 H :   -0.017649
  12 H :    0.015010
  13 H :    0.021808
  14 H :    0.022167
  15 H :   -0.026259
  16 H :    0.020332
  17 H :    0.008899
  18 H :    0.028702
  19 H :    0.137375
Sum of atomic charges:   -0.0000000

LOEWDIN ATOMIC CHARGES
----------------------
   0 C :   -0.004484
   1 N :   -0.094403
   2 C :   -0.012129
   3 C :   -0.065982
   4 C :    0.040665
   5 C :   -0.066592
   6 O :   -0.118947
   7 H :    0.025275
   8 H :    0.003308
   9 H :    0.022510
  10 H :    0.055215
  11 H :    0.002246
  12 H :    0.026712
  13 H :    0.025579
  14 H :    0.031144
  15 H :   -0.002033
  16 H :    0.026776
  17 H :    0.027144
  18 H :    0.033097
  19 H :    0.044902

  Mayer bond orders larger than 0.1
B(  0-C ,  1-N ) :   1.0601 B(  0-C ,  7-H ) :   0.9694 B(  0-C ,  8-H ) :   0.9459
B(  0-C ,  9-H ) :   0.9660 B(  1-N ,  2-C ) :   1.0135 B(  1-N , 10-H ) :   0.9319
B(  2-C ,  3-C ) :   1.0699 B(  2-C ,  4-C ) :   1.0120 B(  2-C , 11-H ) :   0.8976
B(  3-C , 12-H ) :   0.9455 B(  3-C , 13-H ) :   0.9509 B(  3-C , 14-H ) :   0.9544
B(  4-C ,  5-C ) :   1.0985 B(  4-C ,  6-O ) :   1.0881 B(  4-C , 15-H ) :   0.8994
B(  5-C , 16-H ) :   0.9462 B(  5-C , 17-H ) :   0.9504 B(  5-C , 18-H ) :   0.9521
B(  6-O , 19-H ) :   0.9465

FINAL SINGLE POINT ENERGY      -327.653470053133

DIPOLE MOMENT
-------------
                                X             Y             Z
Electronic contribution:      3.77747       2.08973      -0.30201
Nuclear contribution   :     -4.45638      -1.96856       0.92132
                        -----------------------------------------
Total Dipole Moment    :     -0.67890       0.12117       0.61931
                        -----------------------------------------
Magnitude (a.u.)       :      0.92689
Magnitude (Debye)      :      2.35598

                             ****ORCA TERMINATED NORMALLY****
TOTAL RUN TIME: 0 days 0 hours 0 minutes 8 seconds 854 msec
