                         Program Version 3.0.3 - RELEASE   -
|  1> ! RI PBE def2-SVP def2-SVP/J NBO PAL2
|  2> % maxcore 2000
|  3> % output
|  4>     # printlevel mini
|  5>     print[ P_Basis ] 0
|  6>     print[ P_SCFInfo ] 1
|  7>     print[ P_SCFIterInfo ] 1
|  8>     print[ P_OrbEn ] 0
|  9>     print[ P_Cartesian ] 0
| 10> end
| 11> *xyz 0 1
| 12>  C        3.1058310000     1.0383880000     0.0491510000
| 13>  N        2.6738790000    -0.1149650000    -0.7157780000
| 14>  C        3.1718490000    -1.3695250000    -0.2073110000
| 15>  C        2.4805610000    -2.5334450000    -0.9129020000
| 16>  C        4.6851650000    -1.5429590000    -0.3795520000
| 17>  C        5.4008590000    -2.4140580000     0.6150730000
| 18>  O        5.2639260000    -1.0000430000    -1.2885560000
| 19>  H        2.7124700000     1.9455570000    -0.4130220000
| 20>  H        4.1976600000     1.1462100000     0.1316160000
| 21>  H        2.6905470000     0.9800150000     1.0594290000
| 22>  H        2.9915240000    -0.0171380000    -1.6743010000
| 23>  H        2.9391280000    -1.4202230000     0.8638820000
| 24>  H        2.6847770000    -2.4942260000    -1.9859720000
| 25>  H        1.4028830000    -2.4589860000    -0.7646870000
| 26>  H        2.8214550000    -3.5014660000    -0.5391360000
| 27>  H        4.8175050000    -3.3019640000     0.8689620000
| 28>  H        5.5301620000    -1.8435230000     1.5411060000
| 29>  H        6.3817000000    -2.6976590000     0.2365810000
| 30> *
| 31>
| 32>                          ****END OF INPUT****
 Total Charge           Charge          ....    0
 Multiplicity           Mult            ....    1
 Number of Electrons    NEL             ....   56
 Basis Dimension        Dim             ....  153

MULLIKEN ATOMIC CHARGES
-----------------------
   0 C :    0.071770
   1 N :   -0.223824
   2 C :   -0.028069
   3 C :    0.036121
   4 C :   -0.067096
   5 C :    0.044544
   6 O :   -0.168568
   7 H :    0.020953
   8 H :    0.009534
   9 H :    0.009104
  10 H :    0.102014
  11 H :   -0.000815
  12 H :    0.026882
  13 H :    0.042139
  14 H :    0.012814
  15 H :    0.031901
  16 H :    0.046319
  17 H :    0.034277
Sum of atomic charges:   -0.0000000

LOEWDIN ATOMIC CHARGES
----------------------
   0 C :   -0.005951
   1 N :   -0.087268
   2 C :   -0.030968
   3 C :   -0.053351
   4 C :    0.049112
   5 C :   -0.087991
   6 O :   -0.124746
   7 H :    0.024572
   8 H :    0.000572
   9 H :    0.018908
  10 H :    0.052845
  11 H :    0.023643
  12 H :    0.030529
  13 H :    0.035020
  14 H :    0.025699
  15 H :    0.038207
  16 H :    0.052435
  17 H :    0.038734

  Mayer bond orders larger than 0.1
B(  0-C ,  1-N ) :   1.0591 B(  0-C ,  7-H ) :   0.9730 B(  0-C ,  8-H ) :   0.9464
B(  0-C ,  9-H ) :   0.9639 B(  1-N ,  2-C ) :   1.0940 B(  1-N , 10-H ) :   0.9313
B(  2-C ,  3-C ) :   1.0665 B(  2-C ,  4-C ) :   0.8747 B(  2-C , 11-H ) :   0.9040
B(  3-C , 12-H ) :   0.9537 B(  3-C , 13-H ) :   0.9567 B(  3-C , 14-H ) :   0.9537
B(  4-C ,  5-C ) :   1.0339 B(  4-C ,  6-O ) :   2.1745 B(  5-C , 15-H ) :   0.9419
B(  5-C , 16-H ) :   0.9278 B(  5-C , 17-H ) :   0.9413

FINAL SINGLE POINT ENERGY      -326.460473992962

DIPOLE MOMENT
-------------
                                X             Y             Z
Electronic contribution:      2.63365       0.85017      -2.93322
Nuclear contribution   :     -2.77170      -1.24997       3.57117
                        -----------------------------------------
Total Dipole Moment    :     -0.13805      -0.39980       0.63796
                        -----------------------------------------
Magnitude (a.u.)       :      0.76543
Magnitude (Debye)      :      1.94557

                             ****ORCA TERMINATED NORMALLY****
TOTAL RUN TIME: 0 days 0 hours 0 minutes 8 seconds 445 msec
