                         Program Version 3.0.3 - RELEASE   -
|  1> ! RI PBE def2-SVP def2-SVP/J NBO PAL2
|  2> % maxcore 2000
|  3> % output
|  4>     # printlevel mini
|  5>     print[ P_Basis ] 0
|  6>     print[ P_SCFInfo ] 1
|  7>     print[ P_SCFIterInfo ] 1
|  8>     print[ P_OrbEn ] 0
|  9>     print[ P_Cartesian ] 0
| 10> end
| 11> *xyz 0 1
| 12>  C        1.1879730000     0.4310760000    -0.2061970000
| 13>  N        2.5480810000     0.5828540000    -0.6805260000
| 14>  C        2.8913990000    -0.2649670000    -1.8144450000
| 15>  C        2.1205120000     0.1554230000    -3.0556970000
| 16>  C        4.3894570000    -0.1579140000    -2.0432340000
| 17>  C        4.9896750000    -1.1596670000    -2.9815640000
| 18>  O        4.4069200000    -2.0745540000    -3.4966400000
| 19>  H        1.0751740000     0.9658790000     0.7385540000
| 20>  H        0.8877180000    -0.6180390000    -0.0465560000
| 21>  H        0.4838410000     0.8746470000    -0.9127390000
| 22>  H        3.1839990000     0.3815680000     0.0812640000
| 23>  H        2.6540160000    -1.3242920000    -1.6122070000
| 24>  H        2.3093250000     1.2101240000    -3.2743670000
| 25>  H        1.0457020000     0.0234610000    -2.9218460000
| 26>  H        2.4196780000    -0.4503530000    -3.9114280000
| 27>  H        4.9399750000    -0.2760650000    -1.0972100000
| 28>  H        4.6593200000     0.8461100000    -2.3959760000
| 29>  H        6.0755470000    -1.0099730000    -3.1733670000
| 30> *
| 31>
| 32>                          ****END OF INPUT****
 Total Charge           Charge          ....    0
 Multiplicity           Mult            ....    1
 Number of Electrons    NEL             ....   56
 Basis Dimension        Dim             ....  153

MULLIKEN ATOMIC CHARGES
-----------------------
   0 C :    0.066997
   1 N :   -0.243928
   2 C :   -0.032730
   3 C :    0.016622
   4 C :    0.016353
   5 C :    0.082104
   6 O :   -0.159783
   7 H :    0.017764
   8 H :   -0.005234
   9 H :    0.027560
  10 H :    0.095421
  11 H :   -0.000285
  12 H :    0.012874
  13 H :    0.025604
  14 H :    0.026569
  15 H :    0.027796
  16 H :    0.032593
  17 H :   -0.006296
Sum of atomic charges:    0.0000000

LOEWDIN ATOMIC CHARGES
----------------------
   0 C :   -0.006172
   1 N :   -0.102018
   2 C :    0.006224
   3 C :   -0.064429
   4 C :   -0.081739
   5 C :    0.093686
   6 O :   -0.108665
   7 H :    0.023895
   8 H :   -0.000329
   9 H :    0.020708
  10 H :    0.050698
  11 H :    0.005191
  12 H :    0.024535
  13 H :    0.026998
  14 H :    0.030446
  15 H :    0.045370
  16 H :    0.046163
  17 H :   -0.010561

  Mayer bond orders larger than 0.1
B(  0-C ,  1-N ) :   1.0643 B(  0-C ,  7-H ) :   0.9702 B(  0-C ,  8-H ) :   0.9418
B(  0-C ,  9-H ) :   0.9669 B(  1-N ,  2-C ) :   1.0374 B(  1-N , 10-H ) :   0.9395
B(  2-C ,  3-C ) :   1.0721 B(  2-C ,  4-C ) :   1.0408 B(  2-C , 11-H ) :   0.9100
B(  3-C , 12-H ) :   0.9511 B(  3-C , 13-H ) :   0.9560 B(  3-C , 14-H ) :   0.9547
B(  4-C ,  5-C ) :   0.9712 B(  4-C , 15-H ) :   0.8966 B(  4-C , 16-H ) :   0.8996
B(  5-C ,  6-O ) :   2.1624 B(  5-C , 17-H ) :   0.9242

FINAL SINGLE POINT ENERGY      -326.448109685493

DIPOLE MOMENT
-------------
                                X             Y             Z
Electronic contribution:      5.31925      -3.83509      -2.90278
Nuclear contribution   :     -5.07389       4.27431       3.56912
                        -----------------------------------------
Total Dipole Moment    :      0.24536       0.43922       0.66634
                        -----------------------------------------
Magnitude (a.u.)       :      0.83494
Magnitude (Debye)      :      2.12224

                             ****ORCA TERMINATED NORMALLY****
TOTAL RUN TIME: 0 days 0 hours 0 minutes 8 seconds 380 msec
