                         Program Version 3.0.3 - RELEASE   -
|  1> ! RI PBE def2-SVP def2-SVP/J NBO PAL2
|  2> % maxcore 2000
|  3> % output
|  4>     # printlevel mini
|  5>     print[ P_Basis ] 0
|  6>     print[ P_SCFInfo ] 1
|  7>     print[ P_SCFIterInfo ] 1
|  8>     print[ P_OrbEn ] 0
|  9>     print[ P_Cartesian ] 0
| 10> end
| 11> *xyz 0 1
| 12>  C        0.8962320000     0.1085310000    -0.1186650000
| 13>  N        2.3416370000     0.0664750000    -0.1013770000
| 14>  C        2.8796040000    -0.5464810000     1.0968260000
| 15>  C        4.3683790000    -0.6121310000     1.0426290000
| 16>  C        5.1842230000    -0.1358440000     1.9764010000
| 17>  C        6.6719150000    -0.2213640000     1.9122970000
| 18>  O        7.2883040000     1.0517080000     1.9901160000
| 19>  H        0.5526980000     0.6281500000    -1.0150890000
| 20>  H        0.4497060000     0.6034540000     0.7600130000
| 21>  H        0.5023710000    -0.9110740000    -0.1570400000
| 22>  H        2.7181190000     1.0017190000    -0.1946380000
| 23>  H        2.4772450000    -1.5672290000     1.1473520000
| 24>  H        2.5623010000    -0.0416050000     2.0263550000
| 25>  H        4.7857800000    -1.0921560000     0.1583840000
| 26>  H        4.7726590000     0.3638830000     2.8524610000
| 27>  H        6.9764960000    -0.7591250000     1.0040900000
| 28>  H        7.0595010000    -0.7799780000     2.7694630000
| 29>  H        6.9228310000     1.5946370000     1.2863120000
| 30> *
| 31>
| 32>                          ****END OF INPUT****
 Total Charge           Charge          ....    0
 Multiplicity           Mult            ....    1
 Number of Electrons    NEL             ....   56
 Basis Dimension        Dim             ....  153

MULLIKEN ATOMIC CHARGES
-----------------------
   0 C :    0.069584
   1 N :   -0.285781
   2 C :    0.184024
   3 C :   -0.085672
   4 C :   -0.127441
   5 C :    0.248812
   6 O :   -0.295738
   7 H :    0.022893
   8 H :   -0.006208
   9 H :    0.017963
  10 H :    0.098021
  11 H :    0.014066
  12 H :   -0.017222
  13 H :   -0.000350
  14 H :   -0.000678
  15 H :   -0.003297
  16 H :    0.017960
  17 H :    0.149064
Sum of atomic charges:    0.0000000

LOEWDIN ATOMIC CHARGES
----------------------
   0 C :   -0.006544
   1 N :   -0.105875
   2 C :    0.011666
   3 C :   -0.041190
   4 C :   -0.068128
   5 C :    0.054776
   6 O :   -0.123861
   7 H :    0.023422
   8 H :   -0.001933
   9 H :    0.021498
  10 H :    0.053430
  11 H :    0.030732
  12 H :    0.001914
  13 H :    0.024397
  14 H :    0.023293
  15 H :    0.007950
  16 H :    0.028910
  17 H :    0.065542

  Mayer bond orders larger than 0.1
B(  0-C ,  1-N ) :   1.0643 B(  0-C ,  7-H ) :   0.9733 B(  0-C ,  8-H ) :   0.9450
B(  0-C ,  9-H ) :   0.9685 B(  1-N ,  2-C ) :   1.0142 B(  1-N , 10-H ) :   0.9504
B(  2-C ,  3-C ) :   1.0497 B(  2-C , 11-H ) :   0.9081 B(  2-C , 12-H ) :   0.9140
B(  3-C ,  4-C ) :   1.8625 B(  3-C , 13-H ) :   0.9556 B(  4-C ,  5-C ) :   1.0606
B(  4-C , 14-H ) :   0.9531 B(  5-C ,  6-O ) :   1.0265 B(  5-C , 15-H ) :   0.9361
B(  5-C , 16-H ) :   0.9168 B(  6-O , 17-H ) :   0.9866

FINAL SINGLE POINT ENERGY      -326.421747671462

DIPOLE MOMENT
-------------
                                X             Y             Z
Electronic contribution:      5.91839       1.00498       1.21784
Nuclear contribution   :     -6.48897      -0.87259      -1.45305
                        -----------------------------------------
Total Dipole Moment    :     -0.57058       0.13239      -0.23521
                        -----------------------------------------
Magnitude (a.u.)       :      0.63121
Magnitude (Debye)      :      1.60440

                             ****ORCA TERMINATED NORMALLY****
TOTAL RUN TIME: 0 days 0 hours 0 minutes 7 seconds 480 msec
