                         Program Version 3.0.3 - RELEASE   -
|  1> ! RI PBE def2-SVP def2-SVP/J NBO PAL2
|  2> % maxcore 2000
|  3> % output
|  4>     # printlevel mini
|  5>     print[ P_Basis ] 0
|  6>     print[ P_SCFInfo ] 1
|  7>     print[ P_SCFIterInfo ] 1
|  8>     print[ P_OrbEn ] 0
|  9>     print[ P_Cartesian ] 0
| 10> end
| 11> *xyz 0 1
| 12>  C        1.7850330000    -0.5186930000    -0.7139230000
| 13>  N        3.1365010000    -0.2067150000    -0.3010370000
| 14>  C        3.1913860000     0.6486400000     0.8651830000
| 15>  C        4.5969290000     0.8554780000     1.3071080000
| 16>  C        5.1511050000     2.0309690000     1.6048360000
| 17>  C        6.5426320000     2.1105420000     2.0488280000
| 18>  O        7.1091180000     3.1329990000     2.3435250000
| 19>  H        1.8096600000    -1.1182960000    -1.6253050000
| 20>  H        1.1561290000     0.3671770000    -0.8997640000
| 21>  H        1.2959240000    -1.1152880000     0.0610520000
| 22>  H        3.6405460000     0.2289600000    -1.0633740000
| 23>  H        2.6524340000     0.1344040000     1.6734290000
| 24>  H        2.6895550000     1.6216220000     0.7282230000
| 25>  H        5.2006130000    -0.0484510000     1.3823730000
| 26>  H        4.6014940000     2.9654950000     1.5338140000
| 27>  H        7.0684420000     1.1314570000     2.0976220000
| 28> *
| 29>
| 30>                          ****END OF INPUT****
 Total Charge           Charge          ....    0
 Multiplicity           Mult            ....    1
 Number of Electrons    NEL             ....   54
 Basis Dimension        Dim             ....  143

MULLIKEN ATOMIC CHARGES
-----------------------
   0 C :    0.059939
   1 N :   -0.284905
   2 C :    0.189024
   3 C :   -0.079338
   4 C :   -0.018802
   5 C :    0.122866
   6 O :   -0.168122
   7 H :    0.029689
   8 H :    0.001052
   9 H :    0.024165
  10 H :    0.104590
  11 H :    0.029519
  12 H :   -0.006446
  13 H :    0.018930
  14 H :    0.006879
  15 H :   -0.029042
Sum of atomic charges:   -0.0000000

LOEWDIN ATOMIC CHARGES
----------------------
   0 C :   -0.006495
   1 N :   -0.101760
   2 C :    0.011827
   3 C :    0.013466
   4 C :   -0.076040
   5 C :    0.068450
   6 O :   -0.116055
   7 H :    0.026289
   8 H :    0.001382
   9 H :    0.023404
  10 H :    0.057348
  11 H :    0.040781
  12 H :    0.007270
  13 H :    0.031320
  14 H :    0.032703
  15 H :   -0.013889

  Mayer bond orders larger than 0.1
B(  0-C ,  1-N ) :   1.0615 B(  0-C ,  7-H ) :   0.9722 B(  0-C ,  8-H ) :   0.9463
B(  0-C ,  9-H ) :   0.9686 B(  1-N ,  2-C ) :   1.0186 B(  1-N , 10-H ) :   0.9498
B(  2-C ,  3-C ) :   1.0457 B(  2-C , 11-H ) :   0.9011 B(  2-C , 12-H ) :   0.9146
B(  3-C ,  4-C ) :   1.7283 B(  3-C ,  6-O ) :   0.1025 B(  3-C , 13-H ) :   0.9581
B(  4-C ,  5-C ) :   1.0373 B(  4-C , 14-H ) :   0.9636 B(  5-C ,  6-O ) :   2.1108
B(  5-C , 15-H ) :   0.9306

FINAL SINGLE POINT ENERGY      -325.233181739139

DIPOLE MOMENT
-------------
                                X             Y             Z
Electronic contribution:      8.38958       5.00702       4.13365
Nuclear contribution   :     -9.48735      -5.69399      -4.73744
                        -----------------------------------------
Total Dipole Moment    :     -1.09777      -0.68697      -0.60379
                        -----------------------------------------
Magnitude (a.u.)       :      1.42884
Magnitude (Debye)      :      3.63183

                             ****ORCA TERMINATED NORMALLY****
TOTAL RUN TIME: 0 days 0 hours 0 minutes 7 seconds 249 msec
