                         Program Version 3.0.3 - RELEASE   -
|  1> ! RI PBE def2-SVP def2-SVP/J NBO PAL2
|  2> % maxcore 2000
|  3> % output
|  4>     # printlevel mini
|  5>     print[ P_Basis ] 0
|  6>     print[ P_SCFInfo ] 1
|  7>     print[ P_SCFIterInfo ] 1
|  8>     print[ P_OrbEn ] 0
|  9>     print[ P_Cartesian ] 0
| 10> end
| 11> *xyz 0 1
| 12>  C        1.0062390000     0.0365300000    -0.0107350000
| 13>  N        2.4529630000    -0.0064540000    -0.0865720000
| 14>  C        3.0921370000     1.1656440000     0.5041430000
| 15>  C        4.5878970000     1.0289180000     0.5033800000
| 16>  C        5.3620390000     1.8839200000    -0.1546030000
| 17>  C        5.1511400000    -0.1088520000     1.3104200000
| 18>  O        4.7017960000    -1.3741590000     0.8829510000
| 19>  H        0.5842860000    -0.8273000000    -0.5266750000
| 20>  H        0.5721690000     0.9495230000    -0.4465700000
| 21>  H        0.6946440000    -0.0141520000     1.0355000000
| 22>  H        2.7464730000    -0.0817650000    -1.0540490000
| 23>  H        2.7397990000     1.2328670000     1.5417480000
| 24>  H        2.7950400000     2.1015580000     0.0051350000
| 25>  H        4.9440830000     2.7169490000    -0.7111520000
| 26>  H        6.4423300000     1.7863320000    -0.1501520000
| 27>  H        4.8877960000     0.0555900000     2.3696300000
| 28>  H        6.2419940000    -0.1052230000     1.2443010000
| 29>  H        3.7674760000    -1.2596290000     0.6332110000
| 30> *
| 31>
| 32>                          ****END OF INPUT****
 Total Charge           Charge          ....    0
 Multiplicity           Mult            ....    1
 Number of Electrons    NEL             ....   56
 Basis Dimension        Dim             ....  153

MULLIKEN ATOMIC CHARGES
-----------------------
   0 C :    0.075801
   1 N :   -0.300046
   2 C :    0.193071
   3 C :   -0.249079
   4 C :   -0.028272
   5 C :    0.282002
   6 O :   -0.299434
   7 H :    0.031825
   8 H :    0.004078
   9 H :    0.026781
  10 H :    0.117813
  11 H :    0.011798
  12 H :   -0.010987
  13 H :    0.008769
  14 H :    0.020646
  15 H :   -0.010238
  16 H :   -0.005240
  17 H :    0.130712
Sum of atomic charges:   -0.0000000

LOEWDIN ATOMIC CHARGES
----------------------
   0 C :   -0.002309
   1 N :   -0.075944
   2 C :    0.020968
   3 C :   -0.058362
   4 C :   -0.057988
   5 C :    0.062283
   6 O :   -0.137128
   7 H :    0.027309
   8 H :    0.005213
   9 H :    0.025102
  10 H :    0.062446
  11 H :    0.028878
  12 H :    0.007258
  13 H :    0.019064
  14 H :    0.024602
  15 H :    0.006522
  16 H :    0.018241
  17 H :    0.023845

  Mayer bond orders larger than 0.1
B(  0-C ,  1-N ) :   1.0474 B(  0-C ,  7-H ) :   0.9728 B(  0-C ,  8-H ) :   0.9497
B(  0-C ,  9-H ) :   0.9701 B(  1-N ,  2-C ) :   1.0102 B(  1-N , 10-H ) :   0.9350
B(  1-N , 17-H ) :   0.1538 B(  2-C ,  3-C ) :   1.0411 B(  2-C , 11-H ) :   0.9108
B(  2-C , 12-H ) :   0.9144 B(  3-C ,  4-C ) :   1.9807 B(  3-C ,  5-C ) :   1.0337
B(  4-C , 13-H ) :   0.9343 B(  4-C , 14-H ) :   0.9333 B(  5-C ,  6-O ) :   1.0945
B(  5-C , 15-H ) :   0.9025 B(  5-C , 16-H ) :   0.9242 B(  6-O , 17-H ) :   0.9333

FINAL SINGLE POINT ENERGY      -326.429338680933

DIPOLE MOMENT
-------------
                                X             Y             Z
Electronic contribution:      3.45652      -2.03649       0.31388
Nuclear contribution   :     -4.28135       2.79146      -0.65946
                        -----------------------------------------
Total Dipole Moment    :     -0.82483       0.75497      -0.34559
                        -----------------------------------------
Magnitude (a.u.)       :      1.17036
Magnitude (Debye)      :      2.97483

                             ****ORCA TERMINATED NORMALLY****
TOTAL RUN TIME: 0 days 0 hours 0 minutes 7 seconds 879 msec
