                         Program Version 3.0.3 - RELEASE   -
|  1> ! RI PBE def2-SVP def2-SVP/J NBO PAL2
|  2> % maxcore 2000
|  3> % output
|  4>     # printlevel mini
|  5>     print[ P_Basis ] 0
|  6>     print[ P_SCFInfo ] 1
|  7>     print[ P_SCFIterInfo ] 1
|  8>     print[ P_OrbEn ] 0
|  9>     print[ P_Cartesian ] 0
| 10> end
| 11> *xyz 0 1
| 12>  C        0.9299520000     0.2621170000    -0.0753390000
| 13>  N        2.3090370000    -0.1614530000     0.0395900000
| 14>  C        3.2249390000     0.7228140000    -0.6400630000
| 15>  C        4.6592770000     0.3543660000    -0.4307610000
| 16>  C        5.0951160000    -0.5724670000     0.4222610000
| 17>  C        5.6647500000     1.0865270000    -1.2215130000
| 18>  O        5.4076230000     1.9577980000    -2.0132760000
| 19>  H        0.2791780000    -0.4735600000     0.4006600000
| 20>  H        0.5887270000     0.4054220000    -1.1135470000
| 21>  H        0.7950790000     1.2113030000     0.4501680000
| 22>  H        2.4099340000    -1.0985970000    -0.3319360000
| 23>  H        3.0747730000     1.7405350000    -0.2583370000
| 24>  H        3.0439540000     0.8010450000    -1.7257670000
| 25>  H        4.4140740000    -1.1296850000     1.0538010000
| 26>  H        6.1573210000    -0.7767000000     0.5130120000
| 27>  H        6.7147660000     0.7776250000    -1.0301410000
| 28> *
| 29>
| 30>                          ****END OF INPUT****
 Total Charge           Charge          ....    0
 Multiplicity           Mult            ....    1
 Number of Electrons    NEL             ....   54
 Basis Dimension        Dim             ....  143

MULLIKEN ATOMIC CHARGES
-----------------------
   0 C :    0.068842
   1 N :   -0.278532
   2 C :    0.202396
   3 C :   -0.191156
   4 C :    0.003989
   5 C :    0.134922
   6 O :   -0.159196
   7 H :    0.025410
   8 H :    0.000330
   9 H :    0.022417
  10 H :    0.106114
  11 H :    0.025215
  12 H :    0.008905
  13 H :    0.031735
  14 H :    0.026441
  15 H :   -0.027833
Sum of atomic charges:   -0.0000000

LOEWDIN ATOMIC CHARGES
----------------------
   0 C :   -0.004171
   1 N :   -0.099971
   2 C :    0.018279
   3 C :   -0.082438
   4 C :   -0.005842
   5 C :    0.079792
   6 O :   -0.111925
   7 H :    0.024607
   8 H :    0.001289
   9 H :    0.023517
  10 H :    0.056316
  11 H :    0.041197
  12 H :    0.016755
  13 H :    0.027147
  14 H :    0.026711
  15 H :   -0.011262

  Mayer bond orders larger than 0.1
B(  0-C ,  1-N ) :   1.0640 B(  0-C ,  7-H ) :   0.9717 B(  0-C ,  8-H ) :   0.9464
B(  0-C ,  9-H ) :   0.9692 B(  1-N ,  2-C ) :   1.0655 B(  1-N , 10-H ) :   0.9359
B(  2-C ,  3-C ) :   1.0103 B(  2-C , 11-H ) :   0.8974 B(  2-C , 12-H ) :   0.8983
B(  3-C ,  4-C ) :   1.8839 B(  3-C ,  5-C ) :   0.9966 B(  4-C , 13-H ) :   0.9246
B(  4-C , 14-H ) :   0.9286 B(  5-C ,  6-O ) :   2.1421 B(  5-C , 15-H ) :   0.9339

FINAL SINGLE POINT ENERGY      -325.234248981044

DIPOLE MOMENT
-------------
                                X             Y             Z
Electronic contribution:      6.37792       2.30644      -2.52721
Nuclear contribution   :     -6.71411      -3.11190       2.92810
                        -----------------------------------------
Total Dipole Moment    :     -0.33618      -0.80545       0.40089
                        -----------------------------------------
Magnitude (a.u.)       :      0.96046
Magnitude (Debye)      :      2.44130

                             ****ORCA TERMINATED NORMALLY****
TOTAL RUN TIME: 0 days 0 hours 0 minutes 6 seconds 757 msec
