                         Program Version 3.0.3 - RELEASE   -
|  1> ! RI PBE def2-SVP def2-SVP/J NBO PAL2
|  2> % maxcore 2000
|  3> % output
|  4>     # printlevel mini
|  5>     print[ P_Basis ] 0
|  6>     print[ P_SCFInfo ] 1
|  7>     print[ P_SCFIterInfo ] 1
|  8>     print[ P_OrbEn ] 0
|  9>     print[ P_Cartesian ] 0
| 10> end
| 11> *xyz 0 1
| 12>  C        1.0679410000     0.6340280000     2.2611490000
| 13>  N        2.5162440000     0.5981090000     2.2361550000
| 14>  C        3.0746410000     0.9480560000     0.9372190000
| 15>  C        4.5981200000     0.9975350000     0.9510740000
| 16>  C        5.1284470000     1.2351180000    -0.4545550000
| 17>  C        5.1188130000     2.0692100000     1.9054830000
| 18>  O        4.7908410000     1.8399880000     3.2507850000
| 19>  H        0.7053420000     0.2947880000     3.2329100000
| 20>  H        0.6011600000     0.0144810000     1.4794600000
| 21>  H        0.7266690000     1.6622420000     2.1179990000
| 22>  H        2.8376940000    -0.3284970000     2.4930000000
| 23>  H        2.6913030000     1.9411360000     0.6695380000
| 24>  H        2.7305620000     0.2598580000     0.1457080000
| 25>  H        4.9712950000     0.0282130000     1.3102340000
| 26>  H        4.7909470000     2.2011940000    -0.8427780000
| 27>  H        4.7857700000     0.4625710000    -1.1471050000
| 28>  H        6.2205930000     1.2363650000    -0.4685790000
| 29>  H        4.7416540000     3.0496050000     1.5647270000
| 30>  H        6.2109590000     2.1110890000     1.8424630000
| 31>  H        3.8570850000     1.5627210000     3.2500140000
| 32> *
| 33>
| 34>                          ****END OF INPUT****
 Total Charge           Charge          ....    0
 Multiplicity           Mult            ....    1
 Number of Electrons    NEL             ....   58
 Basis Dimension        Dim             ....  163

MULLIKEN ATOMIC CHARGES
-----------------------
   0 C :    0.078708
   1 N :   -0.285053
   2 C :    0.124482
   3 C :   -0.172993
   4 C :    0.000513
   5 C :    0.222473
   6 O :   -0.295779
   7 H :    0.027197
   8 H :    0.003154
   9 H :    0.025945
  10 H :    0.114419
  11 H :   -0.002568
  12 H :   -0.008214
  13 H :    0.001503
  14 H :    0.016464
  15 H :    0.020047
  16 H :    0.028684
  17 H :   -0.027912
  18 H :    0.000368
  19 H :    0.128560
Sum of atomic charges:    0.0000000

LOEWDIN ATOMIC CHARGES
----------------------
   0 C :   -0.001504
   1 N :   -0.075430
   2 C :    0.015470
   3 C :   -0.072033
   4 C :   -0.056927
   5 C :    0.057813
   6 O :   -0.139023
   7 H :    0.025668
   8 H :    0.004467
   9 H :    0.024627
  10 H :    0.059809
  11 H :    0.019609
  12 H :    0.002420
  13 H :    0.020840
  14 H :    0.025292
  15 H :    0.025874
  16 H :    0.029614
  17 H :   -0.004068
  18 H :    0.014588
  19 H :    0.022893

  Mayer bond orders larger than 0.1
B(  0-C ,  1-N ) :   1.0472 B(  0-C ,  7-H ) :   0.9726 B(  0-C ,  8-H ) :   0.9495
B(  0-C ,  9-H ) :   0.9703 B(  1-N ,  2-C ) :   1.0232 B(  1-N , 10-H ) :   0.9331
B(  1-N , 19-H ) :   0.1542 B(  2-C ,  3-C ) :   1.0500 B(  2-C , 11-H ) :   0.9247
B(  2-C , 12-H ) :   0.9254 B(  3-C ,  4-C ) :   1.0701 B(  3-C ,  5-C ) :   1.0303
B(  3-C , 13-H ) :   0.9027 B(  4-C , 14-H ) :   0.9606 B(  4-C , 15-H ) :   0.9547
B(  4-C , 16-H ) :   0.9603 B(  5-C ,  6-O ) :   1.1101 B(  5-C , 17-H ) :   0.9192
B(  5-C , 18-H ) :   0.9383 B(  6-O , 19-H ) :   0.9340

FINAL SINGLE POINT ENERGY      -327.652700733141

DIPOLE MOMENT
-------------
                                X             Y             Z
Electronic contribution:      1.85653       0.37625       4.26572
Nuclear contribution   :     -2.61273      -0.94710      -4.96060
                        -----------------------------------------
Total Dipole Moment    :     -0.75620      -0.57085      -0.69488
                        -----------------------------------------
Magnitude (a.u.)       :      1.17497
Magnitude (Debye)      :      2.98654

                             ****ORCA TERMINATED NORMALLY****
TOTAL RUN TIME: 0 days 0 hours 0 minutes 8 seconds 647 msec
