                         Program Version 3.0.3 - RELEASE   -
|  1> ! RI PBE def2-SVP def2-SVP/J NBO PAL2
|  2> % maxcore 2000
|  3> % output
|  4>     # printlevel mini
|  5>     print[ P_Basis ] 0
|  6>     print[ P_SCFInfo ] 1
|  7>     print[ P_SCFIterInfo ] 1
|  8>     print[ P_OrbEn ] 0
|  9>     print[ P_Cartesian ] 0
| 10> end
| 11> *xyz 0 1
| 12>  C        1.7705760000     1.2420680000    -0.9276310000
| 13>  N        3.0592460000     0.8140410000    -0.4365130000
| 14>  C        3.9466640000     0.3754270000    -1.4863260000
| 15>  C        5.2688490000    -0.1460530000    -0.9336790000
| 16>  C        5.9982380000     0.9209170000    -0.1316390000
| 17>  C        6.1369500000    -0.6606090000    -2.0724250000
| 18>  O        4.9018450000    -1.2332860000    -0.0802330000
| 19>  H        1.1198300000     1.4958050000    -0.0883810000
| 20>  H        1.2541980000     0.4896140000    -1.5483140000
| 21>  H        1.8877660000     2.1432660000    -1.5371640000
| 22>  H        2.9520730000     0.0530030000     0.2230400000
| 23>  H        4.1537670000     1.2212790000    -2.1517340000
| 24>  H        3.5031660000    -0.4218770000    -2.1103920000
| 25>  H        6.9124150000     0.5082050000     0.3076430000
| 26>  H        5.3568250000     1.3011370000     0.6630740000
| 27>  H        6.2881650000     1.7584840000    -0.7706390000
| 28>  H        7.0769060000    -1.0636170000    -1.6842610000
| 29>  H        5.6214050000    -1.4567420000    -2.6132080000
| 30>  H        6.3826670000     0.1387680000    -2.7760820000
| 31>  H        5.6836490000    -1.5130290000     0.4031740000
| 32> *
| 33>
| 34>                          ****END OF INPUT****
 Total Charge           Charge          ....    0
 Multiplicity           Mult            ....    1
 Number of Electrons    NEL             ....   58
 Basis Dimension        Dim             ....  163

MULLIKEN ATOMIC CHARGES
-----------------------
   0 C :    0.069428
   1 N :   -0.257459
   2 C :    0.151671
   3 C :   -0.171828
   4 C :    0.080395
   5 C :    0.072977
   6 O :   -0.265091
   7 H :    0.020602
   8 H :   -0.005856
   9 H :    0.013593
  10 H :    0.103497
  11 H :   -0.001427
  12 H :   -0.016373
  13 H :   -0.004137
  14 H :    0.020237
  15 H :    0.007236
  16 H :    0.000026
  17 H :    0.020339
  18 H :    0.011716
  19 H :    0.150454
Sum of atomic charges:   -0.0000000

LOEWDIN ATOMIC CHARGES
----------------------
   0 C :   -0.007587
   1 N :   -0.098988
   2 C :    0.012351
   3 C :    0.008696
   4 C :   -0.064269
   5 C :   -0.064717
   6 O :   -0.109114
   7 H :    0.022434
   8 H :   -0.002396
   9 H :    0.019246
  10 H :    0.050860
  11 H :    0.020299
  12 H :   -0.000060
  13 H :    0.017175
  14 H :    0.025840
  15 H :    0.029157
  16 H :    0.021375
  17 H :    0.026623
  18 H :    0.028088
  19 H :    0.064988

  Mayer bond orders larger than 0.1
B(  0-C ,  1-N ) :   1.0732 B(  0-C ,  7-H ) :   0.9713 B(  0-C ,  8-H ) :   0.9422
B(  0-C ,  9-H ) :   0.9665 B(  1-N ,  2-C ) :   1.0692 B(  1-N , 10-H ) :   0.9296
B(  2-C ,  3-C ) :   1.0104 B(  2-C , 11-H ) :   0.9231 B(  2-C , 12-H ) :   0.9090
B(  3-C ,  4-C ) :   1.0584 B(  3-C ,  5-C ) :   1.0625 B(  3-C ,  6-O ) :   1.0197
B(  4-C , 13-H ) :   0.9473 B(  4-C , 14-H ) :   0.9427 B(  4-C , 15-H ) :   0.9483
B(  5-C , 16-H ) :   0.9474 B(  5-C , 17-H ) :   0.9505 B(  5-C , 18-H ) :   0.9466
B(  6-O , 19-H ) :   0.9792

FINAL SINGLE POINT ENERGY      -327.654007407692

DIPOLE MOMENT
-------------
                                X             Y             Z
Electronic contribution:     -0.12443      -2.42150       2.39732
Nuclear contribution   :      0.49127       2.32044      -2.43526
                        -----------------------------------------
Total Dipole Moment    :      0.36684      -0.10105      -0.03794
                        -----------------------------------------
Magnitude (a.u.)       :      0.38239
Magnitude (Debye)      :      0.97195

                             ****ORCA TERMINATED NORMALLY****
TOTAL RUN TIME: 0 days 0 hours 0 minutes 8 seconds 810 msec
