                         Program Version 3.0.3 - RELEASE   -
|  1> ! RI PBE def2-SVP def2-SVP/J NBO PAL2
|  2> % maxcore 2000
|  3> % output
|  4>     # printlevel mini
|  5>     print[ P_Basis ] 0
|  6>     print[ P_SCFInfo ] 1
|  7>     print[ P_SCFIterInfo ] 1
|  8>     print[ P_OrbEn ] 0
|  9>     print[ P_Cartesian ] 0
| 10> end
| 11> *xyz 0 1
| 12>  C        0.8802260000     0.1828710000     0.0966210000
| 13>  N        2.3255970000     0.2354290000     0.0392030000
| 14>  C        2.9482390000    -0.0833440000     1.3063990000
| 15>  C        4.4606240000    -0.1356090000     1.1898780000
| 16>  C        5.1058230000     1.2067160000     0.8533050000
| 17>  C        5.0995470000    -0.7034240000     2.4286390000
| 18>  O        4.5125360000    -1.1266600000     3.3859000000
| 19>  H        0.4613860000     0.4828090000    -0.8659250000
| 20>  H        0.4390130000     0.8210310000     0.8799880000
| 21>  H        0.5604440000    -0.8444100000     0.2912150000
| 22>  H        2.6133350000     1.1574180000    -0.2629830000
| 23>  H        2.5870680000    -1.0646850000     1.6270400000
| 24>  H        2.6711460000     0.6170550000     2.1145050000
| 25>  H        4.7195150000    -0.8401120000     0.3843920000
| 26>  H        4.8107830000     1.9733560000     1.5752800000
| 27>  H        4.8181550000     1.5429610000    -0.1442680000
| 28>  H        6.1966480000     1.1356480000     0.8652830000
| 29>  H        6.2135160000    -0.7120610000     2.4030170000
| 30> *
| 31>
| 32>                          ****END OF INPUT****
 Total Charge           Charge          ....    0
 Multiplicity           Mult            ....    1
 Number of Electrons    NEL             ....   56
 Basis Dimension        Dim             ....  153

MULLIKEN ATOMIC CHARGES
-----------------------
   0 C :    0.078290
   1 N :   -0.278892
   2 C :    0.147836
   3 C :   -0.128308
   4 C :   -0.025415
   5 C :    0.105786
   6 O :   -0.151311
   7 H :    0.018898
   8 H :   -0.004594
   9 H :    0.019499
  10 H :    0.097971
  11 H :    0.006850
  12 H :   -0.010595
  13 H :    0.039412
  14 H :    0.033673
  15 H :    0.029330
  16 H :    0.034052
  17 H :   -0.012482
Sum of atomic charges:   -0.0000000

LOEWDIN ATOMIC CHARGES
----------------------
   0 C :   -0.003381
   1 N :   -0.105885
   2 C :    0.020460
   3 C :   -0.092986
   4 C :   -0.056499
   5 C :    0.096640
   6 O :   -0.103738
   7 H :    0.022001
   8 H :   -0.000233
   9 H :    0.021763
  10 H :    0.050150
  11 H :    0.023889
  12 H :    0.001045
  13 H :    0.049386
  14 H :    0.030354
  15 H :    0.028996
  16 H :    0.030818
  17 H :   -0.012777

  Mayer bond orders larger than 0.1
B(  0-C ,  1-N ) :   1.0599 B(  0-C ,  7-H ) :   0.9727 B(  0-C ,  8-H ) :   0.9458
B(  0-C ,  9-H ) :   0.9697 B(  1-N ,  2-C ) :   1.0475 B(  1-N , 10-H ) :   0.9390
B(  2-C ,  3-C ) :   1.0541 B(  2-C , 11-H ) :   0.9196 B(  2-C , 12-H ) :   0.9129
B(  3-C ,  4-C ) :   1.0602 B(  3-C ,  5-C ) :   0.9270 B(  3-C , 13-H ) :   0.8704
B(  4-C , 14-H ) :   0.9628 B(  4-C , 15-H ) :   0.9537 B(  4-C , 16-H ) :   0.9567
B(  5-C ,  6-O ) :   2.1963 B(  5-C , 17-H ) :   0.9308

FINAL SINGLE POINT ENERGY      -326.447263900079

DIPOLE MOMENT
-------------
                                X             Y             Z
Electronic contribution:      3.34538      -3.82211       4.65934
Nuclear contribution   :     -3.19878       4.48174      -5.35154
                        -----------------------------------------
Total Dipole Moment    :      0.14660       0.65963      -0.69220
                        -----------------------------------------
Magnitude (a.u.)       :      0.96734
Magnitude (Debye)      :      2.45878

                             ****ORCA TERMINATED NORMALLY****
TOTAL RUN TIME: 0 days 0 hours 0 minutes 8 seconds 352 msec
