                         Program Version 3.0.3 - RELEASE   -
|  1> ! RI PBE def2-SVP def2-SVP/J NBO PAL2
|  2> % maxcore 2000
|  3> % output
|  4>     # printlevel mini
|  5>     print[ P_Basis ] 0
|  6>     print[ P_SCFInfo ] 1
|  7>     print[ P_SCFIterInfo ] 1
|  8>     print[ P_OrbEn ] 0
|  9>     print[ P_Cartesian ] 0
| 10> end
| 11> *xyz 0 1
| 12>  C        0.9398310000    -0.0756970000     0.0937580000
| 13>  N        2.3706710000    -0.2141520000    -0.0598050000
| 14>  C        2.9549520000    -1.0594550000     0.9646990000
| 15>  C        4.4069960000    -1.0914000000     0.8946060000
| 16>  C        5.6091600000    -1.1168050000     0.8552290000
| 17>  C        7.0650160000    -1.1184360000     0.7955700000
| 18>  O        7.6794550000    -0.3707210000     1.8249850000
| 19>  H        0.5553590000     0.6114920000    -0.6615750000
| 20>  H        0.6264900000     0.2887950000     1.0867160000
| 21>  H        0.4589900000    -1.0448570000    -0.0676620000
| 22>  H        2.8194090000     0.6925700000    -0.0399490000
| 23>  H        2.5687540000    -2.0774770000     0.8311700000
| 24>  H        2.6629240000    -0.7571380000     1.9876670000
| 25>  H        7.3798640000    -0.7626490000    -0.1954610000
| 26>  H        7.4377680000    -2.1406190000     0.9006870000
| 27>  H        7.2593300000     0.4929780000     1.8533570000
| 28> *
| 29>
| 30>                          ****END OF INPUT****
 Total Charge           Charge          ....    0
 Multiplicity           Mult            ....    1
 Number of Electrons    NEL             ....   54
 Basis Dimension        Dim             ....  143

MULLIKEN ATOMIC CHARGES
-----------------------
   0 C :    0.073445
   1 N :   -0.277381
   2 C :    0.183938
   3 C :   -0.134784
   4 C :   -0.214898
   5 C :    0.265296
   6 O :   -0.285954
   7 H :    0.028232
   8 H :   -0.007013
   9 H :    0.017910
  10 H :    0.104213
  11 H :    0.027403
  12 H :    0.009120
  13 H :    0.023371
  14 H :    0.031669
  15 H :    0.155434
Sum of atomic charges:    0.0000000

LOEWDIN ATOMIC CHARGES
----------------------
   0 C :   -0.006234
   1 N :   -0.100373
   2 C :    0.006175
   3 C :   -0.053003
   4 C :   -0.084415
   5 C :    0.051144
   6 O :   -0.117256
   7 H :    0.025762
   8 H :   -0.002058
   9 H :    0.022384
  10 H :    0.056230
  11 H :    0.042859
  12 H :    0.019962
  13 H :    0.026421
  14 H :    0.042884
  15 H :    0.069519

  Mayer bond orders larger than 0.1
B(  0-C ,  1-N ) :   1.0669 B(  0-C ,  7-H ) :   0.9732 B(  0-C ,  8-H ) :   0.9433
B(  0-C ,  9-H ) :   0.9662 B(  1-N ,  2-C ) :   1.0316 B(  1-N , 10-H ) :   0.9459
B(  2-C ,  3-C ) :   1.0415 B(  2-C , 11-H ) :   0.8887 B(  2-C , 12-H ) :   0.8886
B(  3-C ,  4-C ) :   2.6772 B(  4-C ,  5-C ) :   1.0186 B(  5-C ,  6-O ) :   1.0642
B(  5-C , 13-H ) :   0.9185 B(  5-C , 14-H ) :   0.9017 B(  6-O , 15-H ) :   0.9843

FINAL SINGLE POINT ENERGY      -325.178440955254

DIPOLE MOMENT
-------------
                                X             Y             Z
Electronic contribution:      7.06741      -0.85593       1.16208
Nuclear contribution   :     -7.63832       1.32906      -1.23768
                        -----------------------------------------
Total Dipole Moment    :     -0.57090       0.47312      -0.07560
                        -----------------------------------------
Magnitude (a.u.)       :      0.74531
Magnitude (Debye)      :      1.89443

                             ****ORCA TERMINATED NORMALLY****
TOTAL RUN TIME: 0 days 0 hours 0 minutes 6 seconds 828 msec
