                         Program Version 3.0.3 - RELEASE   -
|  1> ! RI PBE def2-SVP def2-SVP/J NBO PAL2
|  2> % maxcore 2000
|  3> % output
|  4>     # printlevel mini
|  5>     print[ P_Basis ] 0
|  6>     print[ P_SCFInfo ] 1
|  7>     print[ P_SCFIterInfo ] 1
|  8>     print[ P_OrbEn ] 0
|  9>     print[ P_Cartesian ] 0
| 10> end
| 11> *xyz 0 1
| 12>  C        1.0053660000     0.1245350000     0.0428140000
| 13>  N        2.4506590000     0.1436600000     0.0886270000
| 14>  C        2.9988710000     1.4131620000    -0.3387620000
| 15>  C        4.4464930000     1.3888490000    -0.4268220000
| 16>  C        5.6471340000     1.3376240000    -0.5271870000
| 17>  C        7.0796820000     1.3454460000    -0.6436170000
| 18>  O        7.7678360000     0.3566780000    -0.6439960000
| 19>  H        0.6463260000    -0.8661530000     0.3244710000
| 20>  H        0.5833000000     0.3800790000    -0.9433180000
| 21>  H        0.6064580000     0.8383800000     0.7691000000
| 22>  H        2.8385900000    -0.6011400000    -0.4756930000
| 23>  H        2.7013440000     2.1857480000     0.3814860000
| 24>  H        2.6114400000     1.7522710000    -1.3188480000
| 25>  H        7.5232410000     2.3555900000    -0.7369260000
| 26> *
| 27>
| 28>                          ****END OF INPUT****
 Total Charge           Charge          ....    0
 Multiplicity           Mult            ....    1
 Number of Electrons    NEL             ....   52
 Basis Dimension        Dim             ....  133

MULLIKEN ATOMIC CHARGES
-----------------------
   0 C :    0.072288
   1 N :   -0.276601
   2 C :    0.189431
   3 C :   -0.067429
   4 C :   -0.073419
   5 C :    0.075097
   6 O :   -0.158259
   7 H :    0.031381
   8 H :   -0.002462
   9 H :    0.022388
  10 H :    0.114809
  11 H :    0.039558
  12 H :    0.018966
  13 H :    0.014252
Sum of atomic charges:   -0.0000000

LOEWDIN ATOMIC CHARGES
----------------------
   0 C :   -0.004049
   1 N :   -0.095783
   2 C :    0.006775
   3 C :    0.008324
   4 C :   -0.083208
   5 C :    0.067732
   6 O :   -0.096148
   7 H :    0.028500
   8 H :   -0.000043
   9 H :    0.023937
  10 H :    0.061615
  11 H :    0.050129
  12 H :    0.028999
  13 H :    0.003221

  Mayer bond orders larger than 0.1
B(  0-C ,  1-N ) :   1.0615 B(  0-C ,  7-H ) :   0.9729 B(  0-C ,  8-H ) :   0.9455
B(  0-C ,  9-H ) :   0.9669 B(  1-N ,  2-C ) :   1.0404 B(  1-N , 10-H ) :   0.9458
B(  2-C ,  3-C ) :   1.0456 B(  2-C , 11-H ) :   0.8829 B(  2-C , 12-H ) :   0.8767
B(  3-C ,  4-C ) :   2.5856 B(  3-C ,  6-O ) :   0.1187 B(  4-C ,  5-C ) :   0.8961
B(  5-C ,  6-O ) :   2.1340 B(  5-C , 13-H ) :   0.9448

FINAL SINGLE POINT ENERGY      -323.983362015777

DIPOLE MOMENT
-------------
                                X             Y             Z
Electronic contribution:     11.32915       0.40009      -0.67951
Nuclear contribution   :    -12.65271       0.17001       0.40900
                        -----------------------------------------
Total Dipole Moment    :     -1.32357       0.57011      -0.27051
                        -----------------------------------------
Magnitude (a.u.)       :      1.46630
Magnitude (Debye)      :      3.72703

                             ****ORCA TERMINATED NORMALLY****
TOTAL RUN TIME: 0 days 0 hours 0 minutes 5 seconds 624 msec
