                         Program Version 3.0.3 - RELEASE   -
|  1> ! RI PBE def2-SVP def2-SVP/J NBO PAL2
|  2> % maxcore 2000
|  3> % output
|  4>     # printlevel mini
|  5>     print[ P_Basis ] 0
|  6>     print[ P_SCFInfo ] 1
|  7>     print[ P_SCFIterInfo ] 1
|  8>     print[ P_OrbEn ] 0
|  9>     print[ P_Cartesian ] 0
| 10> end
| 11> *xyz 0 1
| 12>  C        1.1449120000     2.7582870000    -0.7353010000
| 13>  N        2.5916870000     2.7109000000    -0.7897930000
| 14>  C        3.1130650000     1.3684730000    -1.0097360000
| 15>  C        4.6294630000     1.3659410000    -1.1240380000
| 16>  C        5.1926990000     2.1740060000    -2.2951610000
| 17>  C        4.7627020000     1.6402180000    -3.6534720000
| 18>  O        4.8877370000     3.5474950000    -2.1691270000
| 19>  H        0.8150640000     3.7707640000    -0.4966840000
| 20>  H        0.7118470000     2.0671390000     0.0047880000
| 21>  H        0.7345020000     2.4963150000    -1.7138170000
| 22>  H        2.9778600000     3.0753040000     0.0741670000
| 23>  H        2.6644240000     0.9897230000    -1.9341520000
| 24>  H        2.8004400000     0.6725450000    -0.2127600000
| 25>  H        4.9704040000     0.3287380000    -1.2062470000
| 26>  H        5.0614050000     1.7628320000    -0.1976060000
| 27>  H        6.2856260000     2.1074390000    -2.2387250000
| 28>  H        3.6800470000     1.7139720000    -3.7861100000
| 29>  H        5.0550820000     0.5940790000    -3.7838270000
| 30>  H        5.2320320000     2.2309320000    -4.4417840000
| 31>  H        3.9527120000     3.5895100000    -1.9012970000
| 32> *
| 33>
| 34>                          ****END OF INPUT****
 Total Charge           Charge          ....    0
 Multiplicity           Mult            ....    1
 Number of Electrons    NEL             ....   58
 Basis Dimension        Dim             ....  163

MULLIKEN ATOMIC CHARGES
-----------------------
   0 C :    0.075060
   1 N :   -0.291007
   2 C :    0.078375
   3 C :    0.004407
   4 C :    0.061518
   5 C :    0.019905
   6 O :   -0.291153
   7 H :    0.027490
   8 H :    0.002846
   9 H :    0.025054
  10 H :    0.113517
  11 H :    0.008184
  12 H :   -0.001734
  13 H :    0.003433
  14 H :    0.005588
  15 H :    0.000873
  16 H :    0.009147
  17 H :    0.000799
  18 H :    0.021423
  19 H :    0.126275
Sum of atomic charges:   -0.0000000

LOEWDIN ATOMIC CHARGES
----------------------
   0 C :   -0.002614
   1 N :   -0.079142
   2 C :    0.010535
   3 C :   -0.060363
   4 C :    0.040662
   5 C :   -0.080389
   6 O :   -0.132057
   7 H :    0.025637
   8 H :    0.004228
   9 H :    0.024349
  10 H :    0.059316
  11 H :    0.019084
  12 H :    0.004772
  13 H :    0.029908
  14 H :    0.023086
  15 H :    0.018293
  16 H :    0.019643
  17 H :    0.022300
  18 H :    0.030020
  19 H :    0.022729

  Mayer bond orders larger than 0.1
B(  0-C ,  1-N ) :   1.0527 B(  0-C ,  7-H ) :   0.9728 B(  0-C ,  8-H ) :   0.9493
B(  0-C ,  9-H ) :   0.9698 B(  1-N ,  2-C ) :   1.0108 B(  1-N , 10-H ) :   0.9316
B(  1-N , 19-H ) :   0.1506 B(  2-C ,  3-C ) :   1.0863 B(  2-C , 11-H ) :   0.9313
B(  2-C , 12-H ) :   0.9245 B(  3-C ,  4-C ) :   1.0563 B(  3-C , 13-H ) :   0.9148
B(  3-C , 14-H ) :   0.9239 B(  4-C ,  5-C ) :   1.0717 B(  4-C ,  6-O ) :   1.0707
B(  4-C , 15-H ) :   0.9144 B(  5-C , 16-H ) :   0.9525 B(  5-C , 17-H ) :   0.9453
B(  5-C , 18-H ) :   0.9515 B(  6-O , 19-H ) :   0.9378

FINAL SINGLE POINT ENERGY      -327.655340112238

DIPOLE MOMENT
-------------
                                X             Y             Z
Electronic contribution:      2.74811       2.99267       0.54425
Nuclear contribution   :     -3.47434      -3.59028       0.04677
                        -----------------------------------------
Total Dipole Moment    :     -0.72622      -0.59761       0.59102
                        -----------------------------------------
Magnitude (a.u.)       :      1.11078
Magnitude (Debye)      :      2.82339

                             ****ORCA TERMINATED NORMALLY****
TOTAL RUN TIME: 0 days 0 hours 0 minutes 8 seconds 788 msec
