                         Program Version 3.0.3 - RELEASE   -
|  1> ! RI PBE def2-SVP def2-SVP/J NBO PAL2
|  2> % maxcore 2000
|  3> % output
|  4>     # printlevel mini
|  5>     print[ P_Basis ] 0
|  6>     print[ P_SCFInfo ] 1
|  7>     print[ P_SCFIterInfo ] 1
|  8>     print[ P_OrbEn ] 0
|  9>     print[ P_Cartesian ] 0
| 10> end
| 11> *xyz 0 1
| 12>  C        1.3437500000    -0.3797200000    -0.2223130000
| 13>  N        2.7845960000    -0.2600230000    -0.2709380000
| 14>  C        3.3691190000     0.0359950000     1.0202130000
| 15>  C        4.8744800000     0.1415330000     0.9162730000
| 16>  C        5.5735160000     0.2987920000     2.2452610000
| 17>  C        7.0511240000     0.5872110000     2.1899900000
| 18>  O        4.9855050000     0.1997710000     3.2940060000
| 19>  H        0.9519870000    -0.5481370000    -1.2273540000
| 20>  H        0.8344150000     0.4999410000     0.2053020000
| 21>  H        1.0710430000    -1.2450270000     0.3880720000
| 22>  H        3.0423130000     0.4598650000    -0.9354410000
| 23>  H        3.1158800000    -0.7750620000     1.7089630000
| 24>  H        2.9648340000     0.9549660000     1.4780350000
| 25>  H        5.1734880000     0.9753740000     0.2677010000
| 26>  H        5.2749810000    -0.7571680000     0.4302330000
| 27>  H        7.2063690000     1.6077620000     1.8262290000
| 28>  H        7.5568830000    -0.0810380000     1.4886520000
| 29>  H        7.4874060000     0.4927630000     3.1828080000
| 30> *
| 31>
| 32>                          ****END OF INPUT****
 Total Charge           Charge          ....    0
 Multiplicity           Mult            ....    1
 Number of Electrons    NEL             ....   56
 Basis Dimension        Dim             ....  153

MULLIKEN ATOMIC CHARGES
-----------------------
   0 C :    0.072485
   1 N :   -0.272518
   2 C :    0.107578
   3 C :   -0.017893
   4 C :   -0.070392
   5 C :    0.032714
   6 O :   -0.166416
   7 H :    0.018534
   8 H :   -0.005611
   9 H :    0.019472
  10 H :    0.097819
  11 H :    0.017904
  12 H :   -0.010224
  13 H :    0.021157
  14 H :    0.037901
  15 H :    0.043379
  16 H :    0.037235
  17 H :    0.036877
Sum of atomic charges:   -0.0000000

LOEWDIN ATOMIC CHARGES
----------------------
   0 C :   -0.005931
   1 N :   -0.106806
   2 C :    0.013923
   3 C :   -0.079659
   4 C :    0.058606
   5 C :   -0.087870
   6 O :   -0.121985
   7 H :    0.021631
   8 H :   -0.001658
   9 H :    0.022253
  10 H :    0.051524
  11 H :    0.025305
  12 H :    0.001417
  13 H :    0.034838
  14 H :    0.046521
  15 H :    0.048266
  16 H :    0.041223
  17 H :    0.038403

  Mayer bond orders larger than 0.1
B(  0-C ,  1-N ) :   1.0661 B(  0-C ,  7-H ) :   0.9725 B(  0-C ,  8-H ) :   0.9453
B(  0-C ,  9-H ) :   0.9693 B(  1-N ,  2-C ) :   1.0448 B(  1-N , 10-H ) :   0.9452
B(  2-C ,  3-C ) :   1.0859 B(  2-C , 11-H ) :   0.9254 B(  2-C , 12-H ) :   0.9207
B(  3-C ,  4-C ) :   0.9447 B(  3-C , 13-H ) :   0.9188 B(  3-C , 14-H ) :   0.8932
B(  4-C ,  5-C ) :   1.0397 B(  4-C ,  6-O ) :   2.1787 B(  5-C , 15-H ) :   0.9390
B(  5-C , 16-H ) :   0.9465 B(  5-C , 17-H ) :   0.9473

FINAL SINGLE POINT ENERGY      -326.458548011250

DIPOLE MOMENT
-------------
                                X             Y             Z
Electronic contribution:      2.38760      -0.13385       4.27850
Nuclear contribution   :     -2.01206       0.53054      -5.14275
                        -----------------------------------------
Total Dipole Moment    :      0.37554       0.39669      -0.86425
                        -----------------------------------------
Magnitude (a.u.)       :      1.02240
Magnitude (Debye)      :      2.59875

                             ****ORCA TERMINATED NORMALLY****
TOTAL RUN TIME: 0 days 0 hours 0 minutes 8 seconds 62 msec
