                         Program Version 3.0.3 - RELEASE   -
|  1> ! RI PBE def2-SVP def2-SVP/J NBO PAL2
|  2> % maxcore 2000
|  3> % output
|  4>     # printlevel mini
|  5>     print[ P_Basis ] 0
|  6>     print[ P_SCFInfo ] 1
|  7>     print[ P_SCFIterInfo ] 1
|  8>     print[ P_OrbEn ] 0
|  9>     print[ P_Cartesian ] 0
| 10> end
| 11> *xyz 0 1
| 12>  C        0.8036180000     0.2892470000    -0.0617860000
| 13>  N        2.2499660000     0.2894170000    -0.0473930000
| 14>  C        2.8125350000     0.1478920000     1.2778180000
| 15>  C        4.3318880000     0.0892020000     1.2284430000
| 16>  C        4.8756730000    -1.1199210000     0.4695000000
| 17>  C        4.8669830000    -2.3817550000     1.2777360000
| 18>  O        5.6906350000    -3.2520120000     1.1963310000
| 19>  H        0.4437310000     0.4592590000    -1.0781890000
| 20>  H        0.3492210000     1.0472880000     0.5973600000
| 21>  H        0.4351320000    -0.6890830000     0.2588940000
| 22>  H        2.5976080000     1.1412590000    -0.4713240000
| 23>  H        2.4135830000    -0.7782980000     1.7088060000
| 24>  H        2.5019390000     0.9579660000     1.9610460000
| 25>  H        4.7250310000     0.1070520000     2.2504700000
| 26>  H        4.7034880000     1.0026190000     0.7513260000
| 27>  H        5.8933500000    -0.9634840000     0.1058190000
| 28>  H        4.2376040000    -1.2897680000    -0.4079080000
| 29>  H        4.0201240000    -2.4857790000     1.9944420000
| 30> *
| 31>
| 32>                          ****END OF INPUT****
 Total Charge           Charge          ....    0
 Multiplicity           Mult            ....    1
 Number of Electrons    NEL             ....   56
 Basis Dimension        Dim             ....  153

MULLIKEN ATOMIC CHARGES
-----------------------
   0 C :    0.073441
   1 N :   -0.271531
   2 C :    0.086084
   3 C :   -0.030800
   4 C :    0.030381
   5 C :    0.054323
   6 O :   -0.164830
   7 H :    0.022714
   8 H :   -0.003525
   9 H :    0.019874
  10 H :    0.099713
  11 H :    0.003620
  12 H :   -0.004165
  13 H :    0.016207
  14 H :    0.009509
  15 H :    0.020906
  16 H :    0.049417
  17 H :   -0.011337
Sum of atomic charges:    0.0000000

LOEWDIN ATOMIC CHARGES
----------------------
   0 C :   -0.004139
   1 N :   -0.101147
   2 C :    0.009436
   3 C :   -0.043457
   4 C :   -0.080667
   5 C :    0.087316
   6 O :   -0.110882
   7 H :    0.023724
   8 H :   -0.000206
   9 H :    0.022348
  10 H :    0.053995
  11 H :    0.016583
  12 H :    0.003002
  13 H :    0.028161
  14 H :    0.027799
  15 H :    0.036593
  16 H :    0.048552
  17 H :   -0.017011

  Mayer bond orders larger than 0.1
B(  0-C ,  1-N ) :   1.0638 B(  0-C ,  7-H ) :   0.9732 B(  0-C ,  8-H ) :   0.9464
B(  0-C ,  9-H ) :   0.9686 B(  1-N ,  2-C ) :   1.0310 B(  1-N , 10-H ) :   0.9431
B(  2-C ,  3-C ) :   1.0834 B(  2-C , 11-H ) :   0.9332 B(  2-C , 12-H ) :   0.9146
B(  3-C ,  4-C ) :   1.0486 B(  3-C , 13-H ) :   0.9373 B(  3-C , 14-H ) :   0.9275
B(  4-C ,  5-C ) :   0.9764 B(  4-C , 15-H ) :   0.9190 B(  4-C , 16-H ) :   0.8942
B(  5-C ,  6-O ) :   2.1770 B(  5-C , 17-H ) :   0.9210

FINAL SINGLE POINT ENERGY      -326.445537188540

DIPOLE MOMENT
-------------
                                X             Y             Z
Electronic contribution:      6.39891      -6.04915       0.57043
Nuclear contribution   :     -7.16201       7.26602      -0.61211
                        -----------------------------------------
Total Dipole Moment    :     -0.76310       1.21687      -0.04168
                        -----------------------------------------
Magnitude (a.u.)       :      1.43695
Magnitude (Debye)      :      3.65244

                             ****ORCA TERMINATED NORMALLY****
TOTAL RUN TIME: 0 days 0 hours 0 minutes 8 seconds 198 msec
