                         Program Version 3.0.3 - RELEASE   -
|  1> ! RI PBE def2-SVP def2-SVP/J NBO PAL2
|  2> % maxcore 2000
|  3> % output
|  4>     # printlevel mini
|  5>     print[ P_Basis ] 0
|  6>     print[ P_SCFInfo ] 1
|  7>     print[ P_SCFIterInfo ] 1
|  8>     print[ P_OrbEn ] 0
|  9>     print[ P_Cartesian ] 0
| 10> end
| 11> *xyz 0 1
| 12>  C        0.7439730000     0.3616870000    -1.1349840000
| 13>  N        1.9712390000     1.0912310000    -0.9866400000
| 14>  C        3.0331040000     0.5604010000    -1.4331350000
| 15>  C        4.3196950000     1.2064960000    -1.3524770000
| 16>  C        5.4299050000     0.6173640000    -1.8194170000
| 17>  N        6.7089240000     1.1040590000    -1.6666980000
| 18>  O        7.5519320000     0.7722000000    -2.7405190000
| 19>  H        0.2935970000     0.1975600000    -0.1509360000
| 20>  H        0.8643030000    -0.6128240000    -1.6330810000
| 21>  H        0.0286980000     0.9603180000    -1.7079070000
| 22>  H        3.0183850000    -0.4314850000    -1.9165060000
| 23>  H        4.3516180000     2.1852710000    -0.8830440000
| 24>  H        5.3940490000    -0.3542850000    -2.3022540000
| 25>  H        6.7536830000     2.1065480000    -1.5274230000
| 26>  H        8.2823940000     0.3039490000    -2.3239810000
| 27> *
| 28>
| 29>                          ****END OF INPUT****
 Total Charge           Charge          ....    0
 Multiplicity           Mult            ....    1
 Number of Electrons    NEL             ....   54
 Basis Dimension        Dim             ....  138

MULLIKEN ATOMIC CHARGES
-----------------------
   0 C :    0.076202
   1 N :   -0.182429
   2 C :   -0.019670
   3 C :    0.009004
   4 C :    0.060031
   5 N :   -0.020095
   6 O :   -0.229117
   7 H :    0.029406
   8 H :   -0.011752
   9 H :    0.032010
  10 H :   -0.042638
  11 H :   -0.016814
  12 H :    0.005877
  13 H :    0.127169
  14 H :    0.182815
Sum of atomic charges:   -0.0000000

LOEWDIN ATOMIC CHARGES
----------------------
   0 C :   -0.012847
   1 N :   -0.108992
   2 C :    0.000813
   3 C :   -0.101833
   4 C :    0.001678
   5 N :    0.063212
   6 O :   -0.083228
   7 H :    0.027377
   8 H :   -0.001107
   9 H :    0.027906
  10 H :   -0.011351
  11 H :    0.028276
  12 H :    0.027217
  13 H :    0.066776
  14 H :    0.076104

  Mayer bond orders larger than 0.1
B(  0-C ,  1-N ) :   1.0517 B(  0-C ,  7-H ) :   0.9584 B(  0-C ,  8-H ) :   0.9352
B(  0-C ,  9-H ) :   0.9588 B(  1-N ,  2-C ) :   1.8575 B(  2-C ,  3-C ) :   1.1405
B(  2-C , 10-H ) :   0.9265 B(  3-C ,  4-C ) :   1.6340 B(  3-C , 11-H ) :   0.9589
B(  4-C ,  5-N ) :   1.1724 B(  4-C , 12-H ) :   0.9462 B(  5-N ,  6-O ) :   0.9538
B(  5-N , 13-H ) :   0.9347 B(  6-O , 14-H ) :   0.9780

FINAL SINGLE POINT ENERGY      -341.207277513742

DIPOLE MOMENT
-------------
                                X             Y             Z
Electronic contribution:      6.33634       1.62910      -0.54268
Nuclear contribution   :     -5.29888      -1.94413       0.49248
                        -----------------------------------------
Total Dipole Moment    :      1.03746      -0.31503      -0.05021
                        -----------------------------------------
Magnitude (a.u.)       :      1.08540
Magnitude (Debye)      :      2.75886

                             ****ORCA TERMINATED NORMALLY****
TOTAL RUN TIME: 0 days 0 hours 0 minutes 6 seconds 971 msec
