                         Program Version 3.0.3 - RELEASE   -
|  1> ! RI PBE def2-SVP def2-SVP/J NBO PAL2
|  2> % maxcore 2000
|  3> % output
|  4>     # printlevel mini
|  5>     print[ P_Basis ] 0
|  6>     print[ P_SCFInfo ] 1
|  7>     print[ P_SCFIterInfo ] 1
|  8>     print[ P_OrbEn ] 0
|  9>     print[ P_Cartesian ] 0
| 10> end
| 11> *xyz 0 1
| 12>  C        1.3194530000    -0.3598380000     0.1565460000
| 13>  N        2.7011530000     0.0076240000    -0.0283930000
| 14>  C        3.2045520000     0.1476270000    -1.3028230000
| 15>  C        2.5314990000    -0.0256010000    -2.4415980000
| 16>  C        3.5174560000     0.2165180000     1.0509090000
| 17>  N        3.1134280000     0.1007530000     2.2512300000
| 18>  O        4.1595950000     0.3728860000     3.1361210000
| 19>  H        0.6643460000     0.3856190000    -0.3037370000
| 20>  H        1.1118920000    -0.4163590000     1.2216540000
| 21>  H        1.1199710000    -1.3310720000    -0.3057890000
| 22>  H        4.2532160000     0.4264270000    -1.3253120000
| 23>  H        1.4867340000    -0.3034600000    -2.4749050000
| 24>  H        3.0432140000     0.1153860000    -3.3826260000
| 25>  H        4.5452590000     0.4909420000     0.8177490000
| 26>  H        3.7436330000     0.2555580000     3.9932840000
| 27> *
| 28>
| 29>                          ****END OF INPUT****
 Total Charge           Charge          ....    0
 Multiplicity           Mult            ....    1
 Number of Electrons    NEL             ....   54
 Basis Dimension        Dim             ....  138

MULLIKEN ATOMIC CHARGES
-----------------------
   0 C :    0.074639
   1 N :   -0.196293
   2 C :    0.064682
   3 C :   -0.101302
   4 C :    0.101229
   5 N :   -0.107077
   6 O :   -0.191546
   7 H :    0.044196
   8 H :    0.049917
   9 H :    0.040792
  10 H :    0.009660
  11 H :    0.018101
  12 H :    0.019703
  13 H :    0.004809
  14 H :    0.168489
Sum of atomic charges:   -0.0000000

LOEWDIN ATOMIC CHARGES
----------------------
   0 C :    0.021286
   1 N :    0.018676
   2 C :    0.005238
   3 C :   -0.141532
   4 C :   -0.008273
   5 N :   -0.076478
   6 O :   -0.067540
   7 H :    0.030172
   8 H :    0.032368
   9 H :    0.029623
  10 H :    0.027551
  11 H :    0.020921
  12 H :    0.028958
  13 H :    0.007848
  14 H :    0.071181

  Mayer bond orders larger than 0.1
B(  0-C ,  1-N ) :   1.0003 B(  0-C ,  7-H ) :   0.9606 B(  0-C ,  8-H ) :   0.9472
B(  0-C ,  9-H ) :   0.9604 B(  1-N ,  2-C ) :   1.1251 B(  1-N ,  4-C ) :   1.1212
B(  2-C ,  3-C ) :   1.8592 B(  2-C , 10-H ) :   0.9484 B(  3-C , 11-H ) :   0.9483
B(  3-C , 12-H ) :   0.9355 B(  4-C ,  5-N ) :   1.7590 B(  4-C , 13-H ) :   0.9326
B(  5-N ,  6-O ) :   0.9693 B(  6-O , 14-H ) :   0.9786

FINAL SINGLE POINT ENERGY      -341.221445129163

DIPOLE MOMENT
-------------
                                X             Y             Z
Electronic contribution:      3.17595       0.81451       5.37021
Nuclear contribution   :     -3.37152      -0.86266      -5.28298
                        -----------------------------------------
Total Dipole Moment    :     -0.19557      -0.04816       0.08723
                        -----------------------------------------
Magnitude (a.u.)       :      0.21949
Magnitude (Debye)      :      0.55789

                             ****ORCA TERMINATED NORMALLY****
TOTAL RUN TIME: 0 days 0 hours 0 minutes 6 seconds 954 msec
