                         Program Version 3.0.3 - RELEASE   -
|  1> ! RI PBE def2-SVP def2-SVP/J NBO PAL2
|  2> % maxcore 2000
|  3> % output
|  4>     # printlevel mini
|  5>     print[ P_Basis ] 0
|  6>     print[ P_SCFInfo ] 1
|  7>     print[ P_SCFIterInfo ] 1
|  8>     print[ P_OrbEn ] 0
|  9>     print[ P_Cartesian ] 0
| 10> end
| 11> *xyz 0 1
| 12>  C        1.1334560000    -1.1968100000    -0.4814930000
| 13>  N        2.3796840000    -0.4915370000    -0.2957470000
| 14>  C        2.9296290000    -0.4348210000     0.9720190000
| 15>  C        2.4990260000    -1.1054720000     2.0408610000
| 16>  C        2.9432160000     0.1319620000    -1.3995510000
| 17>  N        4.2128690000     0.6304110000    -1.2220630000
| 18>  O        2.3462640000     0.2589540000    -2.4481960000
| 19>  H        1.2618190000    -2.2642710000    -0.2786140000
| 20>  H        0.8145790000    -1.0552240000    -1.5101410000
| 21>  H        0.3730860000    -0.8017280000     0.1974230000
| 22>  H        3.7471300000     0.2676270000     1.0757910000
| 23>  H        1.6710200000    -1.8006030000     2.0103700000
| 24>  H        2.9879290000    -0.9504170000     2.9922770000
| 25>  H        4.8505930000     0.1395200000    -0.6191730000
| 26>  H        4.6125100000     0.9572110000    -2.0859730000
| 27> *
| 28>
| 29>                          ****END OF INPUT****
 Total Charge           Charge          ....    0
 Multiplicity           Mult            ....    1
 Number of Electrons    NEL             ....   54
 Basis Dimension        Dim             ....  138

MULLIKEN ATOMIC CHARGES
-----------------------
   0 C :    0.083841
   1 N :   -0.235859
   2 C :    0.045675
   3 C :   -0.091548
   4 C :    0.095084
   5 N :   -0.109851
   6 O :   -0.216812
   7 H :    0.038474
   8 H :    0.055971
   9 H :    0.036391
  10 H :    0.009229
  11 H :    0.022586
  12 H :    0.020758
  13 H :    0.120685
  14 H :    0.125375
Sum of atomic charges:   -0.0000000

LOEWDIN ATOMIC CHARGES
----------------------
   0 C :    0.021924
   1 N :   -0.013532
   2 C :   -0.002753
   3 C :   -0.124602
   4 C :    0.032750
   5 N :   -0.021168
   6 O :   -0.202850
   7 H :    0.025062
   8 H :    0.035632
   9 H :    0.027163
  10 H :    0.023756
  11 H :    0.022272
  12 H :    0.029054
  13 H :    0.067851
  14 H :    0.079441

  Mayer bond orders larger than 0.1
B(  0-C ,  1-N ) :   1.0016 B(  0-C ,  7-H ) :   0.9619 B(  0-C ,  8-H ) :   0.9437
B(  0-C ,  9-H ) :   0.9620 B(  1-N ,  2-C ) :   1.1096 B(  1-N ,  4-C ) :   1.0496
B(  2-C ,  3-C ) :   1.8762 B(  2-C , 10-H ) :   0.9431 B(  3-C , 11-H ) :   0.9527
B(  3-C , 12-H ) :   0.9359 B(  4-C ,  5-N ) :   1.1757 B(  4-C ,  6-O ) :   2.0568
B(  5-N , 13-H ) :   0.9375 B(  5-N , 14-H ) :   0.9434

FINAL SINGLE POINT ENERGY      -341.311093761795

DIPOLE MOMENT
-------------
                                X             Y             Z
Electronic contribution:      1.53127       2.56437      -4.43159
Nuclear contribution   :     -0.76471      -2.84942       5.01503
                        -----------------------------------------
Total Dipole Moment    :      0.76656      -0.28504       0.58344
                        -----------------------------------------
Magnitude (a.u.)       :      1.00462
Magnitude (Debye)      :      2.55355

                             ****ORCA TERMINATED NORMALLY****
TOTAL RUN TIME: 0 days 0 hours 0 minutes 7 seconds 18 msec
