                         Program Version 3.0.3 - RELEASE   -
|  1> ! RI PBE def2-SVP def2-SVP/J NBO PAL2
|  2> % maxcore 2000
|  3> % output
|  4>     # printlevel mini
|  5>     print[ P_Basis ] 0
|  6>     print[ P_SCFInfo ] 1
|  7>     print[ P_SCFIterInfo ] 1
|  8>     print[ P_OrbEn ] 0
|  9>     print[ P_Cartesian ] 0
| 10> end
| 11> *xyz 0 1
| 12>  C        1.0724760000    -0.1678420000     0.1851720000
| 13>  N        2.4866880000    -0.0874500000    -0.0841450000
| 14>  C        3.1384030000    -1.1095910000    -0.8602490000
| 15>  C        3.1635790000     0.9837310000     0.4314640000
| 16>  C        4.6317690000     1.1367530000     0.1950560000
| 17>  N        2.4835460000     1.8355630000     1.1162990000
| 18>  O        3.3163490000     2.8720910000     1.5737370000
| 19>  H        0.6676200000    -1.0632590000    -0.2842720000
| 20>  H        0.5463210000     0.7109630000    -0.2019340000
| 21>  H        0.8763640000    -0.2055950000     1.2618880000
| 22>  H        2.3927210000    -1.8483940000    -1.1494360000
| 23>  H        3.9175940000    -1.6379400000    -0.2986540000
| 24>  H        3.5859280000    -0.7221840000    -1.7828990000
| 25>  H        5.0537450000     0.3344680000    -0.4037680000
| 26>  H        5.1513280000     1.1789470000     1.1542890000
| 27>  H        4.8217210000     2.0910430000    -0.2999590000
| 28>  H        2.6966170000     3.4225980000     2.0566100000
| 29> *
| 30>
| 31>                          ****END OF INPUT****
 Total Charge           Charge          ....    0
 Multiplicity           Mult            ....    1
 Number of Electrons    NEL             ....   56
 Basis Dimension        Dim             ....  148

MULLIKEN ATOMIC CHARGES
-----------------------
   0 C :    0.132762
   1 N :   -0.296902
   2 C :    0.097283
   3 C :   -0.058962
   4 C :    0.082632
   5 N :   -0.141738
   6 O :   -0.206855
   7 H :    0.009316
   8 H :    0.021673
   9 H :    0.020396
  10 H :    0.023374
  11 H :    0.031076
  12 H :    0.032728
  13 H :    0.004211
  14 H :    0.043080
  15 H :    0.042494
  16 H :    0.163433
Sum of atomic charges:   -0.0000000

LOEWDIN ATOMIC CHARGES
----------------------
   0 C :    0.016374
   1 N :   -0.044783
   2 C :    0.014268
   3 C :   -0.034275
   4 C :   -0.075896
   5 N :   -0.110258
   6 O :   -0.077989
   7 H :    0.019008
   8 H :    0.020916
   9 H :    0.020450
  10 H :    0.029853
  11 H :    0.018445
  12 H :    0.018727
  13 H :    0.027750
  14 H :    0.045509
  15 H :    0.045547
  16 H :    0.066355

  Mayer bond orders larger than 0.1
B(  0-C ,  1-N ) :   1.0249 B(  0-C ,  7-H ) :   0.9593 B(  0-C ,  8-H ) :   0.9568
B(  0-C ,  9-H ) :   0.9568 B(  1-N ,  2-C ) :   1.0276 B(  1-N ,  3-C ) :   1.1640
B(  2-C , 10-H ) :   0.9615 B(  2-C , 11-H ) :   0.9575 B(  2-C , 12-H ) :   0.9581
B(  3-C ,  4-C ) :   1.0927 B(  3-C ,  5-N ) :   1.7275 B(  4-C , 13-H ) :   0.9337
B(  4-C , 14-H ) :   0.9329 B(  4-C , 15-H ) :   0.9317 B(  5-N ,  6-O ) :   0.9710
B(  6-O , 16-H ) :   0.9810

FINAL SINGLE POINT ENERGY      -342.431387520277

DIPOLE MOMENT
-------------
                                X             Y             Z
Electronic contribution:     -0.57309       4.91636       3.17659
Nuclear contribution   :      0.60931      -5.45728      -3.52421
                        -----------------------------------------
Total Dipole Moment    :      0.03622      -0.54092      -0.34762
                        -----------------------------------------
Magnitude (a.u.)       :      0.64401
Magnitude (Debye)      :      1.63694

                             ****ORCA TERMINATED NORMALLY****
TOTAL RUN TIME: 0 days 0 hours 0 minutes 7 seconds 975 msec
