                         Program Version 3.0.3 - RELEASE   -
|  1> ! RI PBE def2-SVP def2-SVP/J NBO PAL2
|  2> % maxcore 2000
|  3> % output
|  4>     # printlevel mini
|  5>     print[ P_Basis ] 0
|  6>     print[ P_SCFInfo ] 1
|  7>     print[ P_SCFIterInfo ] 1
|  8>     print[ P_OrbEn ] 0
|  9>     print[ P_Cartesian ] 0
| 10> end
| 11> *xyz 0 1
| 12>  C        0.9437820000     0.1930820000    -0.1194560000
| 13>  N        2.2739970000    -0.0863900000     0.3732350000
| 14>  C        2.3831820000     0.2091000000     1.7822420000
| 15>  C        2.6860190000    -1.4447820000     0.0808760000
| 16>  C        2.9159210000    -1.6483930000    -1.3774390000
| 17>  N        2.3377860000    -2.5977170000    -1.9815860000
| 18>  O        2.6958860000    -2.6551970000    -3.3160330000
| 19>  H        0.7081360000     1.2477800000     0.0379820000
| 20>  H        0.1689990000    -0.4125400000     0.3847340000
| 21>  H        0.8862370000    -0.0127850000    -1.1896610000
| 22>  H        2.1256360000     1.2556920000     1.9593750000
| 23>  H        3.4100950000     0.0514350000     2.1197180000
| 24>  H        1.7167010000    -0.4137110000     2.4065170000
| 25>  H        1.9673980000    -2.2019520000     0.4399490000
| 26>  H        3.6334690000    -1.6223370000     0.6034050000
| 27>  H        3.5921600000    -0.9712450000    -1.9028690000
| 28>  H        2.1873090000    -3.4013420000    -3.6452680000
| 29> *
| 30>
| 31>                          ****END OF INPUT****
 Total Charge           Charge          ....    0
 Multiplicity           Mult            ....    1
 Number of Electrons    NEL             ....   56
 Basis Dimension        Dim             ....  148

MULLIKEN ATOMIC CHARGES
-----------------------
   0 C :    0.095443
   1 N :   -0.361190
   2 C :    0.110046
   3 C :    0.204175
   4 C :   -0.079793
   5 N :   -0.038231
   6 O :   -0.176949
   7 H :    0.020431
   8 H :   -0.013508
   9 H :    0.034613
  10 H :    0.018096
  11 H :    0.017225
  12 H :   -0.014277
  13 H :   -0.011745
  14 H :    0.016375
  15 H :    0.008363
  16 H :    0.170925
Sum of atomic charges:   -0.0000000

LOEWDIN ATOMIC CHARGES
----------------------
   0 C :    0.002901
   1 N :   -0.115939
   2 C :    0.004263
   3 C :    0.011564
   4 C :   -0.041015
   5 N :   -0.012715
   6 O :   -0.054132
   7 H :    0.021944
   8 H :   -0.001125
   9 H :    0.023689
  10 H :    0.022191
  11 H :    0.020842
  12 H :   -0.002290
  13 H :    0.006161
  14 H :    0.032514
  15 H :    0.007799
  16 H :    0.073349

  Mayer bond orders larger than 0.1
B(  0-C ,  1-N ) :   1.0305 B(  0-C ,  7-H ) :   0.9679 B(  0-C ,  8-H ) :   0.9350
B(  0-C ,  9-H ) :   0.9614 B(  1-N ,  2-C ) :   1.0347 B(  1-N ,  3-C ) :   1.0062
B(  2-C , 10-H ) :   0.9673 B(  2-C , 11-H ) :   0.9671 B(  2-C , 12-H ) :   0.9363
B(  3-C ,  4-C ) :   1.0312 B(  3-C , 13-H ) :   0.9006 B(  3-C , 14-H ) :   0.9134
B(  4-C ,  5-N ) :   1.8874 B(  4-C ,  6-O ) :   0.1154 B(  4-C , 15-H ) :   0.9426
B(  5-N ,  6-O ) :   0.9958 B(  6-O , 16-H ) :   0.9758

FINAL SINGLE POINT ENERGY      -342.415005500584

DIPOLE MOMENT
-------------
                                X             Y             Z
Electronic contribution:      2.36256      -4.88905      -7.40029
Nuclear contribution   :     -2.49388       4.82006       7.52468
                        -----------------------------------------
Total Dipole Moment    :     -0.13133      -0.06899       0.12439
                        -----------------------------------------
Magnitude (a.u.)       :      0.19359
Magnitude (Debye)      :      0.49208

                             ****ORCA TERMINATED NORMALLY****
TOTAL RUN TIME: 0 days 0 hours 0 minutes 6 seconds 998 msec
