                         Program Version 3.0.3 - RELEASE   -
|  1> ! RI PBE def2-SVP def2-SVP/J NBO PAL2
|  2> % maxcore 2000
|  3> % output
|  4>     # printlevel mini
|  5>     print[ P_Basis ] 0
|  6>     print[ P_SCFInfo ] 1
|  7>     print[ P_SCFIterInfo ] 1
|  8>     print[ P_OrbEn ] 0
|  9>     print[ P_Cartesian ] 0
| 10> end
| 11> *xyz 0 1
| 12>  C        1.3103490000    -0.5241080000    -0.2180910000
| 13>  N        2.3796960000     0.4010930000    -0.5253240000
| 14>  C        2.3229260000     0.8239380000    -1.9103070000
| 15>  C        2.3980200000     1.5364000000     0.3726170000
| 16>  C        3.7513610000     2.2265000000     0.4795230000
| 17>  N        4.7980330000     1.4387490000     0.1593550000
| 18>  O        3.8505020000     3.3724810000     0.8648130000
| 19>  H        1.3702510000    -1.3881910000    -0.8836030000
| 20>  H        0.3089870000    -0.0754200000    -0.3353530000
| 21>  H        1.4074040000    -0.8792370000     0.8098140000
| 22>  H        2.4063050000    -0.0448630000    -2.5667900000
| 23>  H        3.1518370000     1.4991880000    -2.1312970000
| 24>  H        1.3821540000     1.3482490000    -2.1501340000
| 25>  H        2.1568680000     1.1940000000     1.3839740000
| 26>  H        1.6596500000     2.3109380000     0.1150770000
| 27>  H        4.6170470000     0.5017820000    -0.1610820000
| 28>  H        5.7310980000     1.8029900000     0.2314080000
| 29> *
| 30>
| 31>                          ****END OF INPUT****
 Total Charge           Charge          ....    0
 Multiplicity           Mult            ....    1
 Number of Electrons    NEL             ....   56
 Basis Dimension        Dim             ....  148

MULLIKEN ATOMIC CHARGES
-----------------------
   0 C :    0.094059
   1 N :   -0.371816
   2 C :    0.089157
   3 C :    0.124243
   4 C :   -0.058912
   5 N :   -0.043150
   6 O :   -0.205955
   7 H :    0.022761
   8 H :   -0.000691
   9 H :    0.025947
  10 H :    0.024900
  11 H :    0.029816
  12 H :    0.000836
  13 H :    0.038032
  14 H :    0.007877
  15 H :    0.110048
  16 H :    0.112847
Sum of atomic charges:   -0.0000000

LOEWDIN ATOMIC CHARGES
----------------------
   0 C :    0.004491
   1 N :   -0.117570
   2 C :    0.001705
   3 C :   -0.008491
   4 C :    0.008267
   5 N :    0.017885
   6 O :   -0.196897
   7 H :    0.022914
   8 H :    0.003234
   9 H :    0.023382
  10 H :    0.022765
  11 H :    0.022653
  12 H :    0.004602
  13 H :    0.041232
  14 H :    0.018094
  15 H :    0.061217
  16 H :    0.070518

  Mayer bond orders larger than 0.1
B(  0-C ,  1-N ) :   1.0282 B(  0-C ,  7-H ) :   0.9668 B(  0-C ,  8-H ) :   0.9451
B(  0-C ,  9-H ) :   0.9676 B(  1-N ,  2-C ) :   1.0132 B(  1-N ,  3-C ) :   1.0147
B(  2-C , 10-H ) :   0.9674 B(  2-C , 11-H ) :   0.9654 B(  2-C , 12-H ) :   0.9425
B(  3-C ,  4-C ) :   0.9417 B(  3-C , 13-H ) :   0.9196 B(  3-C , 14-H ) :   0.9037
B(  4-C ,  5-N ) :   1.2791 B(  4-C ,  6-O ) :   2.1226 B(  5-N , 15-H ) :   0.9114
B(  5-N , 16-H ) :   0.9388

FINAL SINGLE POINT ENERGY      -342.503907208068

DIPOLE MOMENT
-------------
                                X             Y             Z
Electronic contribution:      5.17168       5.13573       3.65756
Nuclear contribution   :     -5.21068      -6.47828      -4.18779
                        -----------------------------------------
Total Dipole Moment    :     -0.03899      -1.34255      -0.53024
                        -----------------------------------------
Magnitude (a.u.)       :      1.44400
Magnitude (Debye)      :      3.67034

                             ****ORCA TERMINATED NORMALLY****
TOTAL RUN TIME: 0 days 0 hours 0 minutes 8 seconds 79 msec
