                         Program Version 3.0.3 - RELEASE   -
|  1> ! RI PBE def2-SVP def2-SVP/J NBO PAL2
|  2> % maxcore 2000
|  3> % output
|  4>     # printlevel mini
|  5>     print[ P_Basis ] 0
|  6>     print[ P_SCFInfo ] 1
|  7>     print[ P_SCFIterInfo ] 1
|  8>     print[ P_OrbEn ] 0
|  9>     print[ P_Cartesian ] 0
| 10> end
| 11> *xyz 0 1
| 12>  C        1.0035950000     0.1288010000    -0.1927920000
| 13>  N        2.4381760000     0.1348110000    -0.0682450000
| 14>  C        3.1656510000    -0.9841860000     0.1054770000
| 15>  C        4.5029380000    -1.0849810000     0.2319110000
| 16>  C        5.0887880000    -2.4135510000     0.4141140000
| 17>  N        6.4482520000    -2.4348180000     0.5336600000
| 18>  O        4.4400580000    -3.4482890000     0.4588520000
| 19>  H        0.6521530000     1.1518590000    -0.3238430000
| 20>  H        0.5208650000    -0.2794400000     0.7007660000
| 21>  H        0.6743840000    -0.4522780000    -1.0600390000
| 22>  H        2.9156660000     1.0169180000    -0.1138280000
| 23>  H        2.5971310000    -1.9108380000     0.1474440000
| 24>  H        5.1434560000    -0.2088160000     0.2012030000
| 25>  H        7.0036780000    -1.6014170000     0.4996300000
| 26>  H        6.8967000000    -3.3240470000     0.6596910000
| 27> *
| 28>
| 29>                          ****END OF INPUT****
 Total Charge           Charge          ....    0
 Multiplicity           Mult            ....    1
 Number of Electrons    NEL             ....   54
 Basis Dimension        Dim             ....  138

MULLIKEN ATOMIC CHARGES
-----------------------
   0 C :    0.078683
   1 N :   -0.137668
   2 C :    0.071285
   3 C :   -0.135010
   4 C :    0.039892
   5 N :   -0.060866
   6 O :   -0.240501
   7 H :    0.024946
   8 H :    0.039768
   9 H :    0.039617
  10 H :    0.111749
  11 H :    0.012766
  12 H :   -0.044974
  13 H :    0.094968
  14 H :    0.105345
Sum of atomic charges:   -0.0000000

LOEWDIN ATOMIC CHARGES
----------------------
   0 C :    0.010988
   1 N :    0.011255
   2 C :    0.043598
   3 C :   -0.180328
   4 C :    0.020898
   5 N :   -0.002759
   6 O :   -0.232521
   7 H :    0.030860
   8 H :    0.026035
   9 H :    0.025995
  10 H :    0.074234
  11 H :    0.033226
  12 H :    0.008973
  13 H :    0.062943
  14 H :    0.066602

  Mayer bond orders larger than 0.1
B(  0-C ,  1-N ) :   1.0248 B(  0-C ,  7-H ) :   0.9726 B(  0-C ,  8-H ) :   0.9660
B(  0-C ,  9-H ) :   0.9658 B(  1-N ,  2-C ) :   1.2684 B(  1-N , 10-H ) :   0.9432
B(  2-C ,  3-C ) :   1.6617 B(  2-C , 11-H ) :   0.9304 B(  3-C ,  4-C ) :   1.0004
B(  3-C , 12-H ) :   0.9421 B(  4-C ,  5-N ) :   1.2256 B(  4-C ,  6-O ) :   2.0553
B(  5-N , 13-H ) :   0.9429 B(  5-N , 14-H ) :   0.9380

FINAL SINGLE POINT ENERGY      -341.309170820101

DIPOLE MOMENT
-------------
                                X             Y             Z
Electronic contribution:      4.23660      -3.86406       0.75116
Nuclear contribution   :     -4.25495       5.60711      -0.92486
                        -----------------------------------------
Total Dipole Moment    :     -0.01835       1.74306      -0.17370
                        -----------------------------------------
Magnitude (a.u.)       :      1.75179
Magnitude (Debye)      :      4.45269

                             ****ORCA TERMINATED NORMALLY****
TOTAL RUN TIME: 0 days 0 hours 0 minutes 7 seconds 169 msec
