                         Program Version 3.0.3 - RELEASE   -
|  1> ! RI PBE def2-SVP def2-SVP/J NBO PAL2
|  2> % maxcore 2000
|  3> % output
|  4>     # printlevel mini
|  5>     print[ P_Basis ] 0
|  6>     print[ P_SCFInfo ] 1
|  7>     print[ P_SCFIterInfo ] 1
|  8>     print[ P_OrbEn ] 0
|  9>     print[ P_Cartesian ] 0
| 10> end
| 11> *xyz 0 1
| 12>  C        1.1808400000    -0.4856650000    -0.1731320000
| 13>  N        2.6086670000    -0.6741590000    -0.0175930000
| 14>  C        3.0801460000    -0.6293760000     1.3604060000
| 15>  C        2.5264850000    -1.7966410000     2.1683800000
| 16>  C        4.5727950000    -0.6952060000     1.3357280000
| 17>  N        5.2524140000     0.2697240000     1.7902510000
| 18>  O        6.6129980000     0.0354690000     1.6955970000
| 19>  H        0.9509400000    -0.3616490000    -1.2327360000
| 20>  H        0.7855950000     0.3894000000     0.3691950000
| 21>  H        0.6371340000    -1.3669610000     0.1729820000
| 22>  H        3.0980440000     0.0391200000    -0.5434620000
| 23>  H        2.7997260000     0.3110660000     1.8639840000
| 24>  H        2.7822380000    -2.7456300000     1.6904720000
| 25>  H        1.4401790000    -1.7387880000     2.2550430000
| 26>  H        2.9417050000    -1.7862880000     3.1777200000
| 27>  H        5.0533900000    -1.5808820000     0.9143100000
| 28>  H        6.9968150000     0.8330750000     2.0701450000
| 29> *
| 30>
| 31>                          ****END OF INPUT****
 Total Charge           Charge          ....    0
 Multiplicity           Mult            ....    1
 Number of Electrons    NEL             ....   56
 Basis Dimension        Dim             ....  148

MULLIKEN ATOMIC CHARGES
-----------------------
   0 C :    0.060960
   1 N :   -0.252181
   2 C :    0.048481
   3 C :    0.004724
   4 C :   -0.037426
   5 N :   -0.037960
   6 O :   -0.176210
   7 H :    0.021538
   8 H :   -0.005428
   9 H :    0.028225
  10 H :    0.103306
  11 H :   -0.010961
  12 H :    0.023284
  13 H :    0.029865
  14 H :    0.027361
  15 H :    0.002253
  16 H :    0.170170
Sum of atomic charges:    0.0000000

LOEWDIN ATOMIC CHARGES
----------------------
   0 C :   -0.007006
   1 N :   -0.101253
   2 C :   -0.004459
   3 C :   -0.060969
   4 C :   -0.031232
   5 N :   -0.014070
   6 O :   -0.055932
   7 H :    0.025269
   8 H :   -0.000510
   9 H :    0.020540
  10 H :    0.055369
  11 H :    0.006253
  12 H :    0.027873
  13 H :    0.027568
  14 H :    0.032333
  15 H :    0.007339
  16 H :    0.072888

  Mayer bond orders larger than 0.1
B(  0-C ,  1-N ) :   1.0633 B(  0-C ,  7-H ) :   0.9710 B(  0-C ,  8-H ) :   0.9424
B(  0-C ,  9-H ) :   0.9675 B(  1-N ,  2-C ) :   1.0072 B(  1-N , 10-H ) :   0.9416
B(  2-C ,  3-C ) :   1.0596 B(  2-C ,  4-C ) :   1.0050 B(  2-C , 11-H ) :   0.9003
B(  3-C , 12-H ) :   0.9549 B(  3-C , 13-H ) :   0.9533 B(  3-C , 14-H ) :   0.9578
B(  4-C ,  5-N ) :   1.8985 B(  4-C ,  6-O ) :   0.1158 B(  4-C , 15-H ) :   0.9427
B(  5-N ,  6-O ) :   0.9890 B(  6-O , 16-H ) :   0.9758

FINAL SINGLE POINT ENERGY      -342.421650235051

DIPOLE MOMENT
-------------
                                X             Y             Z
Electronic contribution:      8.96629       2.63078       0.89243
Nuclear contribution   :     -9.07922      -2.31091      -0.86402
                        -----------------------------------------
Total Dipole Moment    :     -0.11293       0.31986       0.02840
                        -----------------------------------------
Magnitude (a.u.)       :      0.34040
Magnitude (Debye)      :      0.86523

                             ****ORCA TERMINATED NORMALLY****
TOTAL RUN TIME: 0 days 0 hours 0 minutes 7 seconds 999 msec
