                         Program Version 3.0.3 - RELEASE   -
|  1> ! RI PBE def2-SVP def2-SVP/J NBO PAL2
|  2> % maxcore 2000
|  3> % output
|  4>     # printlevel mini
|  5>     print[ P_Basis ] 0
|  6>     print[ P_SCFInfo ] 1
|  7>     print[ P_SCFIterInfo ] 1
|  8>     print[ P_OrbEn ] 0
|  9>     print[ P_Cartesian ] 0
| 10> end
| 11> *xyz 0 1
| 12>  C        1.4315010000    -0.5818740000     0.1066540000
| 13>  N        2.8112870000    -0.4388170000     0.5319110000
| 14>  C        3.0968630000     0.7700840000     1.2930860000
| 15>  C        2.2311040000     0.8771370000     2.5415980000
| 16>  C        4.5601960000     0.8071000000     1.7306280000
| 17>  N        5.1658220000    -0.3986030000     1.7752630000
| 18>  O        5.1031440000     1.8495420000     2.0329270000
| 19>  H        1.3589350000    -1.4204220000    -0.5879880000
| 20>  H        1.0267950000     0.3128720000    -0.3920280000
| 21>  H        0.7907300000    -0.8100930000     0.9595910000
| 22>  H        3.4026390000    -0.4395720000    -0.2910610000
| 23>  H        2.9501950000     1.6846360000     0.6973180000
| 24>  H        2.3105810000    -0.0319240000     3.1434600000
| 25>  H        1.1817220000     1.0352960000     2.2882300000
| 26>  H        2.5659350000     1.7260170000     3.1384590000
| 27>  H        4.6239440000    -1.2232670000     1.5753680000
| 28>  H        6.1028870000    -0.4602220000     2.1324720000
| 29> *
| 30>
| 31>                          ****END OF INPUT****
 Total Charge           Charge          ....    0
 Multiplicity           Mult            ....    1
 Number of Electrons    NEL             ....   56
 Basis Dimension        Dim             ....  148

MULLIKEN ATOMIC CHARGES
-----------------------
   0 C :    0.048992
   1 N :   -0.260088
   2 C :   -0.009459
   3 C :    0.016469
   4 C :   -0.035597
   5 N :   -0.038845
   6 O :   -0.208793
   7 H :    0.026532
   8 H :    0.007100
   9 H :    0.034459
  10 H :    0.109225
  11 H :    0.005720
  12 H :    0.020340
  13 H :    0.029951
  14 H :    0.038615
  15 H :    0.102379
  16 H :    0.113000
Sum of atomic charges:   -0.0000000

LOEWDIN ATOMIC CHARGES
----------------------
   0 C :   -0.006643
   1 N :   -0.100346
   2 C :   -0.020923
   3 C :   -0.056788
   4 C :    0.015665
   5 N :    0.018318
   6 O :   -0.198613
   7 H :    0.025880
   8 H :    0.004682
   9 H :    0.023620
  10 H :    0.057000
  11 H :    0.016920
  12 H :    0.026927
  13 H :    0.026142
  14 H :    0.039076
  15 H :    0.058064
  16 H :    0.071021

  Mayer bond orders larger than 0.1
B(  0-C ,  1-N ) :   1.0587 B(  0-C ,  7-H ) :   0.9706 B(  0-C ,  8-H ) :   0.9474
B(  0-C ,  9-H ) :   0.9667 B(  1-N ,  2-C ) :   1.0178 B(  1-N , 10-H ) :   0.9382
B(  2-C ,  3-C ) :   1.0840 B(  2-C ,  4-C ) :   0.9046 B(  2-C , 11-H ) :   0.8926
B(  3-C , 12-H ) :   0.9511 B(  3-C , 13-H ) :   0.9559 B(  3-C , 14-H ) :   0.9505
B(  4-C ,  5-N ) :   1.2983 B(  4-C ,  6-O ) :   2.1096 B(  5-N , 15-H ) :   0.9084
B(  5-N , 16-H ) :   0.9374

FINAL SINGLE POINT ENERGY      -342.510583328225

DIPOLE MOMENT
-------------
                                X             Y             Z
Electronic contribution:      7.47903       2.21376       1.01957
Nuclear contribution   :     -7.97095      -3.37830      -1.49936
                        -----------------------------------------
Total Dipole Moment    :     -0.49192      -1.16455      -0.47980
                        -----------------------------------------
Magnitude (a.u.)       :      1.35217
Magnitude (Debye)      :      3.43694

                             ****ORCA TERMINATED NORMALLY****
TOTAL RUN TIME: 0 days 0 hours 0 minutes 8 seconds 40 msec
