                         Program Version 3.0.3 - RELEASE   -
|  1> ! RI PBE def2-SVP def2-SVP/J NBO PAL2
|  2> % maxcore 2000
|  3> % output
|  4>     # printlevel mini
|  5>     print[ P_Basis ] 0
|  6>     print[ P_SCFInfo ] 1
|  7>     print[ P_SCFIterInfo ] 1
|  8>     print[ P_OrbEn ] 0
|  9>     print[ P_Cartesian ] 0
| 10> end
| 11> *xyz 0 1
| 12>  C        1.2297300000    -0.0745440000     0.0681030000
| 13>  N        2.6727860000     0.0254790000     0.0905990000
| 14>  C        3.2064080000     0.7748010000    -1.0297710000
| 15>  C        4.6889410000     0.9484100000    -0.9024340000
| 16>  C        5.2488080000     1.6821100000     0.2693090000
| 17>  N        5.3855350000     0.4452770000    -1.8410180000
| 18>  O        6.7429170000     0.6723380000    -1.6605850000
| 19>  H        0.8909020000    -0.6962950000     0.8988700000
| 20>  H        0.8230270000    -0.4946740000    -0.8664610000
| 21>  H        0.7929330000     0.9194050000     0.2000780000
| 22>  H        3.0832820000    -0.9003400000     0.0933480000
| 23>  H        2.7371480000     1.7675760000    -1.0141480000
| 24>  H        2.9869970000     0.3266710000    -2.0106340000
| 25>  H        4.4788600000     1.8249540000     1.0259340000
| 26>  H        5.6362080000     2.6555170000    -0.0467040000
| 27>  H        6.0885170000     1.1361490000     0.7027830000
| 28>  H        7.1317220000     0.2345550000    -2.4222690000
| 29> *
| 30>
| 31>                          ****END OF INPUT****
 Total Charge           Charge          ....    0
 Multiplicity           Mult            ....    1
 Number of Electrons    NEL             ....   56
 Basis Dimension        Dim             ....  148

MULLIKEN ATOMIC CHARGES
-----------------------
   0 C :    0.072296
   1 N :   -0.279943
   2 C :    0.204943
   3 C :   -0.281034
   4 C :    0.101773
   5 N :   -0.031604
   6 O :   -0.184583
   7 H :    0.023986
   8 H :   -0.005334
   9 H :    0.017723
  10 H :    0.101517
  11 H :    0.009308
  12 H :   -0.013384
  13 H :    0.021492
  14 H :    0.036376
  15 H :    0.036230
  16 H :    0.170237
Sum of atomic charges:   -0.0000000

LOEWDIN ATOMIC CHARGES
----------------------
   0 C :   -0.006101
   1 N :   -0.102848
   2 C :    0.012584
   3 C :   -0.064275
   4 C :   -0.074448
   5 N :   -0.030763
   6 O :   -0.058306
   7 H :    0.023485
   8 H :   -0.001030
   9 H :    0.021404
  10 H :    0.056327
  11 H :    0.027636
  12 H :    0.005341
  13 H :    0.033284
  14 H :    0.044934
  15 H :    0.040958
  16 H :    0.071818

  Mayer bond orders larger than 0.1
B(  0-C ,  1-N ) :   1.0668 B(  0-C ,  7-H ) :   0.9732 B(  0-C ,  8-H ) :   0.9444
B(  0-C ,  9-H ) :   0.9682 B(  1-N ,  2-C ) :   1.0158 B(  1-N , 10-H ) :   0.9468
B(  2-C ,  3-C ) :   1.0573 B(  2-C , 11-H ) :   0.9093 B(  2-C , 12-H ) :   0.8979
B(  3-C ,  4-C ) :   1.0762 B(  3-C ,  5-N ) :   1.9218 B(  4-C , 13-H ) :   0.9345
B(  4-C , 14-H ) :   0.9326 B(  4-C , 15-H ) :   0.9318 B(  5-N ,  6-O ) :   1.0003
B(  6-O , 16-H ) :   0.9764

FINAL SINGLE POINT ENERGY      -342.429877138471

DIPOLE MOMENT
-------------
                                X             Y             Z
Electronic contribution:      6.71447      -0.63976      -3.60728
Nuclear contribution   :     -6.80029       0.45545       3.52823
                        -----------------------------------------
Total Dipole Moment    :     -0.08581      -0.18432      -0.07904
                        -----------------------------------------
Magnitude (a.u.)       :      0.21814
Magnitude (Debye)      :      0.55446

                             ****ORCA TERMINATED NORMALLY****
TOTAL RUN TIME: 0 days 0 hours 0 minutes 7 seconds 749 msec
