                         Program Version 3.0.3 - RELEASE   -
|  1> ! RI PBE def2-SVP def2-SVP/J NBO PAL2
|  2> % maxcore 2000
|  3> % output
|  4>     # printlevel mini
|  5>     print[ P_Basis ] 0
|  6>     print[ P_SCFInfo ] 1
|  7>     print[ P_SCFIterInfo ] 1
|  8>     print[ P_OrbEn ] 0
|  9>     print[ P_Cartesian ] 0
| 10> end
| 11> *xyz 0 1
| 12>  C        1.1848340000     0.2308780000     0.3244910000
| 13>  N        2.6116650000     0.0859310000     0.1384450000
| 14>  C        2.9560860000    -0.6538330000    -1.0549880000
| 15>  C        4.4664480000    -0.7983530000    -1.1862220000
| 16>  C        4.8643220000    -1.4520550000    -2.4608520000
| 17>  N        5.4858540000    -2.5543570000    -2.4459840000
| 18>  O        5.7660610000    -3.0058940000    -3.7251140000
| 19>  H        0.9851680000     0.7441220000     1.2670880000
| 20>  H        0.6324830000    -0.7237110000     0.3266600000
| 21>  H        0.7728050000     0.8470050000    -0.4797180000
| 22>  H        3.0181020000    -0.3699630000     0.9464960000
| 23>  H        2.5641810000    -0.1019100000    -1.9179700000
| 24>  H        2.4904180000    -1.6550220000    -1.0902240000
| 25>  H        4.8673920000    -1.3840850000    -0.3541920000
| 26>  H        4.9100510000     0.2022540000    -1.1322080000
| 27>  H        4.6098670000    -0.9781000000    -3.4123720000
| 28>  H        6.2337740000    -3.8301080000    -3.5657370000
| 29> *
| 30>
| 31>                          ****END OF INPUT****
 Total Charge           Charge          ....    0
 Multiplicity           Mult            ....    1
 Number of Electrons    NEL             ....   56
 Basis Dimension        Dim             ....  148

MULLIKEN ATOMIC CHARGES
-----------------------
   0 C :    0.069124
   1 N :   -0.270854
   2 C :    0.075727
   3 C :    0.075042
   4 C :   -0.064465
   5 N :   -0.046814
   6 O :   -0.180803
   7 H :    0.021421
   8 H :   -0.005985
   9 H :    0.019952
  10 H :    0.100401
  11 H :    0.003081
  12 H :   -0.006550
  13 H :    0.008491
  14 H :    0.028148
  15 H :    0.003316
  16 H :    0.170769
Sum of atomic charges:   -0.0000000

LOEWDIN ATOMIC CHARGES
----------------------
   0 C :   -0.005858
   1 N :   -0.106967
   2 C :    0.014634
   3 C :   -0.051448
   4 C :   -0.032800
   5 N :   -0.017789
   6 O :   -0.058571
   7 H :    0.022946
   8 H :   -0.001581
   9 H :    0.021539
  10 H :    0.053871
  11 H :    0.018315
  12 H :   -0.000544
  13 H :    0.029184
  14 H :    0.037600
  15 H :    0.004674
  16 H :    0.072792

  Mayer bond orders larger than 0.1
B(  0-C ,  1-N ) :   1.0643 B(  0-C ,  7-H ) :   0.9729 B(  0-C ,  8-H ) :   0.9447
B(  0-C ,  9-H ) :   0.9689 B(  1-N ,  2-C ) :   1.0462 B(  1-N , 10-H ) :   0.9444
B(  2-C ,  3-C ) :   1.0669 B(  2-C , 11-H ) :   0.9334 B(  2-C , 12-H ) :   0.9181
B(  3-C ,  4-C ) :   1.0378 B(  3-C , 13-H ) :   0.9202 B(  3-C , 14-H ) :   0.9073
B(  4-C ,  5-N ) :   1.9106 B(  4-C ,  6-O ) :   0.1124 B(  4-C , 15-H ) :   0.9399
B(  5-N ,  6-O ) :   0.9877 B(  6-O , 16-H ) :   0.9765

FINAL SINGLE POINT ENERGY      -342.421414195179

DIPOLE MOMENT
-------------
                                X             Y             Z
Electronic contribution:      7.29299      -4.62350      -5.08066
Nuclear contribution   :     -7.44138       4.38544       5.28518
                        -----------------------------------------
Total Dipole Moment    :     -0.14838      -0.23806       0.20452
                        -----------------------------------------
Magnitude (a.u.)       :      0.34716
Magnitude (Debye)      :      0.88241

                             ****ORCA TERMINATED NORMALLY****
TOTAL RUN TIME: 0 days 0 hours 0 minutes 6 seconds 859 msec
