                         Program Version 3.0.3 - RELEASE   -
|  1> ! RI PBE def2-SVP def2-SVP/J NBO PAL2
|  2> % maxcore 2000
|  3> % output
|  4>     # printlevel mini
|  5>     print[ P_Basis ] 0
|  6>     print[ P_SCFInfo ] 1
|  7>     print[ P_SCFIterInfo ] 1
|  8>     print[ P_OrbEn ] 0
|  9>     print[ P_Cartesian ] 0
| 10> end
| 11> *xyz 0 1
| 12>  C        1.3727340000    -0.2572820000     0.5083190000
| 13>  N        2.7932600000    -0.0195170000     0.3725690000
| 14>  C        3.1353410000     0.6540330000    -0.8623550000
| 15>  C        4.6267010000     0.9055780000    -0.9390820000
| 16>  C        5.0115570000     1.7529410000    -2.1339170000
| 17>  N        6.3022010000     1.6239120000    -2.5364330000
| 18>  O        4.2371730000     2.5044600000    -2.6870190000
| 19>  H        1.1769420000    -0.8156210000     1.4259030000
| 20>  H        0.9274810000    -0.8105850000    -0.3353760000
| 21>  H        0.8494140000     0.6996240000     0.5853350000
| 22>  H        3.2900880000    -0.9005190000     0.4293030000
| 23>  H        2.6163020000     1.6152870000    -0.8928080000
| 24>  H        2.8060550000     0.1019930000    -1.7598440000
| 25>  H        5.1809460000    -0.0399190000    -0.9565410000
| 26>  H        4.9436860000     1.4363640000    -0.0340820000
| 27>  H        6.9578360000     1.0486920000    -2.0414720000
| 28>  H        6.6357730000     2.2291470000    -3.2665110000
| 29> *
| 30>
| 31>                          ****END OF INPUT****
 Total Charge           Charge          ....    0
 Multiplicity           Mult            ....    1
 Number of Electrons    NEL             ....   56
 Basis Dimension        Dim             ....  148

MULLIKEN ATOMIC CHARGES
-----------------------
   0 C :    0.069561
   1 N :   -0.272797
   2 C :    0.090512
   3 C :   -0.014087
   4 C :   -0.024189
   5 N :   -0.045909
   6 O :   -0.207933
   7 H :    0.019032
   8 H :   -0.006185
   9 H :    0.020617
  10 H :    0.096403
  11 H :    0.022587
  12 H :   -0.009599
  13 H :    0.003105
  14 H :    0.039040
  15 H :    0.105131
  16 H :    0.114710
Sum of atomic charges:   -0.0000000

LOEWDIN ATOMIC CHARGES
----------------------
   0 C :   -0.006631
   1 N :   -0.107290
   2 C :    0.016732
   3 C :   -0.077764
   4 C :    0.028300
   5 N :    0.009303
   6 O :   -0.189789
   7 H :    0.021458
   8 H :   -0.002066
   9 H :    0.022708
  10 H :    0.050754
  11 H :    0.026381
  12 H :    0.000992
  13 H :    0.022110
  14 H :    0.043947
  15 H :    0.069050
  16 H :    0.071805

  Mayer bond orders larger than 0.1
B(  0-C ,  1-N ) :   1.0658 B(  0-C ,  7-H ) :   0.9725 B(  0-C ,  8-H ) :   0.9448
B(  0-C ,  9-H ) :   0.9684 B(  1-N ,  2-C ) :   1.0404 B(  1-N , 10-H ) :   0.9457
B(  2-C ,  3-C ) :   1.0901 B(  2-C , 11-H ) :   0.9208 B(  2-C , 12-H ) :   0.9264
B(  3-C ,  4-C ) :   0.9430 B(  3-C , 13-H ) :   0.9216 B(  3-C , 14-H ) :   0.8992
B(  4-C ,  5-N ) :   1.2620 B(  4-C ,  6-O ) :   2.0969 B(  5-N , 15-H ) :   0.9429
B(  5-N , 16-H ) :   0.9380

FINAL SINGLE POINT ENERGY      -342.505807650165

DIPOLE MOMENT
-------------
                                X             Y             Z
Electronic contribution:      4.70593       4.34926      -4.47754
Nuclear contribution   :     -3.60417      -5.23623       4.70382
                        -----------------------------------------
Total Dipole Moment    :      1.10176      -0.88697       0.22628
                        -----------------------------------------
Magnitude (a.u.)       :      1.43241
Magnitude (Debye)      :      3.64089

                             ****ORCA TERMINATED NORMALLY****
TOTAL RUN TIME: 0 days 0 hours 0 minutes 7 seconds 501 msec
