                         Program Version 3.0.3 - RELEASE   -
|  1> ! RI PBE def2-SVP def2-SVP/J NBO PAL2
|  2> % maxcore 2000
|  3> % output
|  4>     # printlevel mini
|  5>     print[ P_Basis ] 0
|  6>     print[ P_SCFInfo ] 1
|  7>     print[ P_SCFIterInfo ] 1
|  8>     print[ P_OrbEn ] 0
|  9>     print[ P_Cartesian ] 0
| 10> end
| 11> *xyz 0 1
| 12>  C        0.7054020000    -1.2928740000    -2.3401900000
| 13>  N        2.0678650000    -0.8155640000    -2.4025990000
| 14>  C        2.7912970000    -0.9921300000    -1.1600240000
| 15>  C        4.2101120000    -0.4609920000    -1.2502810000
| 16>  C        5.0589780000    -1.1953300000    -2.2629730000
| 17>  O        6.3538470000    -0.6471240000    -2.2497210000
| 18>  C        7.2012590000    -1.2588470000    -3.1789990000
| 19>  H        0.1923300000    -1.0770950000    -3.2794390000
| 20>  H        0.1150320000    -0.8578090000    -1.5156540000
| 21>  H        0.7039170000    -2.3784430000    -2.2058790000
| 22>  H        2.0772020000     0.1649920000    -2.6575370000
| 23>  H        2.8141740000    -2.0663270000    -0.9374360000
| 24>  H        2.2797960000    -0.5140890000    -0.3051920000
| 25>  H        4.6872540000    -0.5355730000    -0.2686680000
| 26>  H        4.1948470000     0.6049080000    -1.5063470000
| 27>  H        4.6165420000    -1.1153350000    -3.2653100000
| 28>  H        5.0999710000    -2.2686340000    -2.0126040000
| 29>  H        8.1766230000    -0.7761940000    -3.1071190000
| 30>  H        6.8242480000    -1.1475930000    -4.2058390000
| 31>  H        7.3210150000    -2.3324570000    -2.9729810000
| 32> *
| 33>
| 34>                          ****END OF INPUT****
 Total Charge           Charge          ....    0
 Multiplicity           Mult            ....    1
 Number of Electrons    NEL             ....   58
 Basis Dimension        Dim             ....  163

MULLIKEN ATOMIC CHARGES
-----------------------
   0 C :    0.062115
   1 N :   -0.272181
   2 C :    0.086941
   3 C :   -0.026179
   4 C :    0.180833
   5 O :   -0.348304
   6 C :    0.150488
   7 H :    0.023691
   8 H :   -0.006307
   9 H :    0.021025
  10 H :    0.100672
  11 H :    0.002618
  12 H :   -0.013013
  13 H :    0.016105
  14 H :    0.013833
  15 H :   -0.004261
  16 H :   -0.019085
  17 H :    0.027196
  18 H :    0.001609
  19 H :    0.002205
Sum of atomic charges:   -0.0000000

LOEWDIN ATOMIC CHARGES
----------------------
   0 C :   -0.008540
   1 N :   -0.105649
   2 C :    0.012541
   3 C :   -0.056080
   4 C :    0.060428
   5 O :   -0.152598
   6 C :    0.048529
   7 H :    0.022987
   8 H :   -0.002108
   9 H :    0.022169
  10 H :    0.053790
  11 H :    0.018256
  12 H :   -0.001110
  13 H :    0.030775
  14 H :    0.024749
  15 H :    0.002617
  16 H :    0.001648
  17 H :    0.021035
  18 H :    0.003235
  19 H :    0.003323

  Mayer bond orders larger than 0.1
B(  0-C ,  1-N ) :   1.0695 B(  0-C ,  7-H ) :   0.9731 B(  0-C ,  8-H ) :   0.9422
B(  0-C ,  9-H ) :   0.9683 B(  1-N ,  2-C ) :   1.0375 B(  1-N , 10-H ) :   0.9447
B(  2-C ,  3-C ) :   1.0814 B(  2-C , 11-H ) :   0.9279 B(  2-C , 12-H ) :   0.9169
B(  3-C ,  4-C ) :   1.0759 B(  3-C , 13-H ) :   0.9252 B(  3-C , 14-H ) :   0.9313
B(  4-C ,  5-O ) :   1.0253 B(  4-C , 15-H ) :   0.9265 B(  4-C , 16-H ) :   0.9221
B(  5-O ,  6-C ) :   1.0233 B(  6-C , 17-H ) :   0.9760 B(  6-C , 18-H ) :   0.9554
B(  6-C , 19-H ) :   0.9555

FINAL SINGLE POINT ENERGY      -327.631910166797

DIPOLE MOMENT
-------------
                                X             Y             Z
Electronic contribution:      3.22629       1.70201       0.33187
Nuclear contribution   :     -3.55583      -1.74769      -0.42541
                        -----------------------------------------
Total Dipole Moment    :     -0.32954      -0.04569      -0.09353
                        -----------------------------------------
Magnitude (a.u.)       :      0.34559
Magnitude (Debye)      :      0.87841

                             ****ORCA TERMINATED NORMALLY****
TOTAL RUN TIME: 0 days 0 hours 0 minutes 8 seconds 342 msec
