                         Program Version 3.0.3 - RELEASE   -
|  1> ! RI PBE def2-SVP def2-SVP/J NBO PAL2
|  2> % maxcore 2000
|  3> % output
|  4>     # printlevel mini
|  5>     print[ P_Basis ] 0
|  6>     print[ P_SCFInfo ] 1
|  7>     print[ P_SCFIterInfo ] 1
|  8>     print[ P_OrbEn ] 0
|  9>     print[ P_Cartesian ] 0
| 10> end
| 11> *xyz 0 1
| 12>  C        0.1460080000    -1.6560230000    -0.8560560000
| 13>  N        0.4806870000    -2.6055420000     0.1810140000
| 14>  C        1.8921890000    -2.8708880000     0.4092880000
| 15>  C        2.6143800000    -3.5428420000    -0.7597750000
| 16>  C        2.6434690000    -1.6139300000     0.8075720000
| 17>  O        2.0882140000    -1.0479030000     1.9600110000
| 18>  C        2.7648830000     0.1077340000     2.3621050000
| 19>  H        0.5954180000    -1.8533540000    -1.8426420000
| 20>  H        0.4367250000    -0.6478470000    -0.5505010000
| 21>  H       -0.9380930000    -1.6467350000    -0.9841590000
| 22>  H        0.0001570000    -3.4805970000     0.0232130000
| 23>  H        1.9338650000    -3.5457800000     1.2721460000
| 24>  H        2.6486620000    -2.8967110000    -1.6408710000
| 25>  H        3.6439590000    -3.7989580000    -0.4958440000
| 26>  H        2.1043470000    -4.4671920000    -1.0417590000
| 27>  H        2.6365040000    -0.8848080000    -0.0196100000
| 28>  H        3.6982990000    -1.8798510000     0.9820490000
| 29>  H        2.2717080000     0.4844540000     3.2586420000
| 30>  H        2.7335000000     0.8868930000     1.5864620000
| 31>  H        3.8195280000    -0.0988020000     2.5969060000
| 32> *
| 33>
| 34>                          ****END OF INPUT****
 Total Charge           Charge          ....    0
 Multiplicity           Mult            ....    1
 Number of Electrons    NEL             ....   58
 Basis Dimension        Dim             ....  163

MULLIKEN ATOMIC CHARGES
-----------------------
   0 C :    0.057279
   1 N :   -0.216259
   2 C :   -0.052010
   3 C :    0.020215
   4 C :    0.184256
   5 O :   -0.328488
   6 C :    0.152348
   7 H :   -0.008199
   8 H :    0.024102
   9 H :    0.021592
  10 H :    0.095126
  11 H :    0.009328
  12 H :    0.021563
  13 H :    0.008905
  14 H :    0.009384
  15 H :   -0.015970
  16 H :   -0.013307
  17 H :    0.028351
  18 H :    0.003020
  19 H :   -0.001237
Sum of atomic charges:   -0.0000000

LOEWDIN ATOMIC CHARGES
----------------------
   0 C :   -0.010210
   1 N :   -0.090820
   2 C :   -0.012645
   3 C :   -0.074651
   4 C :    0.054339
   5 O :   -0.137624
   6 C :    0.049194
   7 H :   -0.005662
   8 H :    0.020315
   9 H :    0.025536
  10 H :    0.052231
  11 H :    0.025716
  12 H :    0.023413
  13 H :    0.025545
  14 H :    0.023616
  15 H :   -0.000677
  16 H :    0.004308
  17 H :    0.022315
  18 H :    0.003520
  19 H :    0.002240

  Mayer bond orders larger than 0.1
B(  0-C ,  1-N ) :   1.0719 B(  0-C ,  7-H ) :   0.9408 B(  0-C ,  8-H ) :   0.9635
B(  0-C ,  9-H ) :   0.9704 B(  1-N ,  2-C ) :   1.0966 B(  1-N , 10-H ) :   0.9484
B(  2-C ,  3-C ) :   1.0557 B(  2-C ,  4-C ) :   1.0364 B(  2-C , 11-H ) :   0.9100
B(  3-C , 12-H ) :   0.9554 B(  3-C , 13-H ) :   0.9455 B(  3-C , 14-H ) :   0.9536
B(  4-C ,  5-O ) :   1.0483 B(  4-C , 15-H ) :   0.9092 B(  4-C , 16-H ) :   0.9253
B(  5-O ,  6-C ) :   1.0259 B(  6-C , 17-H ) :   0.9752 B(  6-C , 18-H ) :   0.9542
B(  6-C , 19-H ) :   0.9525

FINAL SINGLE POINT ENERGY      -327.627777349917

DIPOLE MOMENT
-------------
                                X             Y             Z
Electronic contribution:     -1.59851      -0.43502       3.78980
Nuclear contribution   :      1.91905       0.38560      -4.20147
                        -----------------------------------------
Total Dipole Moment    :      0.32055      -0.04942      -0.41167
                        -----------------------------------------
Magnitude (a.u.)       :      0.52408
Magnitude (Debye)      :      1.33212

                             ****ORCA TERMINATED NORMALLY****
TOTAL RUN TIME: 0 days 0 hours 0 minutes 8 seconds 347 msec
