                         Program Version 3.0.3 - RELEASE   -
|  1> ! RI PBE def2-SVP def2-SVP/J NBO PAL2
|  2> % maxcore 2000
|  3> % output
|  4>     # printlevel mini
|  5>     print[ P_Basis ] 0
|  6>     print[ P_SCFInfo ] 1
|  7>     print[ P_SCFIterInfo ] 1
|  8>     print[ P_OrbEn ] 0
|  9>     print[ P_Cartesian ] 0
| 10> end
| 11> *xyz 0 1
| 12>  C        1.1298050000    -0.5214100000    -0.6015510000
| 13>  N        2.4869160000    -0.3000040000    -0.1565890000
| 14>  C        2.6219640000     0.8624370000     0.7017170000
| 15>  C        4.0383920000     1.0646860000     1.1216760000
| 16>  C        4.7058940000     2.1799630000     0.8308250000
| 17>  O        5.9748190000     2.4988630000     1.1452080000
| 18>  C        6.7057520000     1.5377300000     1.8684790000
| 19>  H        1.0977930000    -1.3713000000    -1.2861010000
| 20>  H        0.6746870000     0.3470630000    -1.1078170000
| 21>  H        0.4987680000    -0.7666310000     0.2577450000
| 22>  H        3.1057320000    -0.1958410000    -0.9512640000
| 23>  H        1.9916890000     0.6864450000     1.5834430000
| 24>  H        2.2394290000     1.7875260000     0.2323800000
| 25>  H        4.5059520000     0.2491530000     1.6620880000
| 26>  H        4.2394270000     2.9904620000     0.2784690000
| 27>  H        7.6949560000     1.9606810000     2.0353340000
| 28>  H        6.7969250000     0.6036610000     1.3033390000
| 29>  H        6.2303310000     1.3244230000     2.8322300000
| 30> *
| 31>
| 32>                          ****END OF INPUT****
 Total Charge           Charge          ....    0
 Multiplicity           Mult            ....    1
 Number of Electrons    NEL             ....   56
 Basis Dimension        Dim             ....  153

MULLIKEN ATOMIC CHARGES
-----------------------
   0 C :    0.061157
   1 N :   -0.272041
   2 C :    0.168766
   3 C :   -0.168452
   4 C :    0.130686
   5 O :   -0.263358
   6 C :    0.132211
   7 H :    0.024029
   8 H :   -0.008652
   9 H :    0.016923
  10 H :    0.095710
  11 H :    0.007598
  12 H :   -0.026076
  13 H :   -0.000450
  14 H :    0.006660
  15 H :    0.038226
  16 H :    0.027557
  17 H :    0.029508
Sum of atomic charges:    0.0000000

LOEWDIN ATOMIC CHARGES
----------------------
   0 C :   -0.010434
   1 N :   -0.107669
   2 C :    0.016873
   3 C :   -0.129717
   4 C :    0.021137
   5 O :   -0.067835
   6 C :    0.060490
   7 H :    0.022766
   8 H :   -0.003811
   9 H :    0.021125
  10 H :    0.051487
  11 H :    0.023979
  12 H :   -0.002080
  13 H :    0.023526
  14 H :    0.020744
  15 H :    0.026728
  16 H :    0.015945
  17 H :    0.016745

  Mayer bond orders larger than 0.1
B(  0-C ,  1-N ) :   1.0703 B(  0-C ,  7-H ) :   0.9727 B(  0-C ,  8-H ) :   0.9423
B(  0-C ,  9-H ) :   0.9669 B(  1-N ,  2-C ) :   1.0205 B(  1-N , 10-H ) :   0.9468
B(  2-C ,  3-C ) :   1.0633 B(  2-C , 11-H ) :   0.9109 B(  2-C , 12-H ) :   0.9128
B(  3-C ,  4-C ) :   1.7482 B(  3-C , 13-H ) :   0.9582 B(  4-C ,  5-O ) :   1.1615
B(  4-C , 14-H ) :   0.9650 B(  5-O ,  6-C ) :   0.9909 B(  6-C , 15-H ) :   0.9725
B(  6-C , 16-H ) :   0.9585 B(  6-C , 17-H ) :   0.9586

FINAL SINGLE POINT ENERGY      -326.420534717370

DIPOLE MOMENT
-------------
                                X             Y             Z
Electronic contribution:      4.35819       3.48805       0.72063
Nuclear contribution   :     -4.17481      -3.55287      -0.73518
                        -----------------------------------------
Total Dipole Moment    :      0.18338      -0.06482      -0.01456
                        -----------------------------------------
Magnitude (a.u.)       :      0.19504
Magnitude (Debye)      :      0.49575

                             ****ORCA TERMINATED NORMALLY****
TOTAL RUN TIME: 0 days 0 hours 0 minutes 7 seconds 544 msec
