                         Program Version 3.0.3 - RELEASE   -
|  1> ! RI PBE def2-SVP def2-SVP/J NBO PAL2
|  2> % maxcore 2000
|  3> % output
|  4>     # printlevel mini
|  5>     print[ P_Basis ] 0
|  6>     print[ P_SCFInfo ] 1
|  7>     print[ P_SCFIterInfo ] 1
|  8>     print[ P_OrbEn ] 0
|  9>     print[ P_Cartesian ] 0
| 10> end
| 11> *xyz 0 1
| 12>  C        0.9463740000     0.8613700000     0.0900410000
| 13>  N        2.2675670000     0.3045450000     0.2742550000
| 14>  C        2.9231910000    -0.0023020000    -0.9718630000
| 15>  C        4.3147780000    -0.5326760000    -0.7962760000
| 16>  C        5.0048270000    -0.4953830000     0.3422520000
| 17>  O        4.7484090000    -1.0435370000    -1.9714880000
| 18>  C        6.0630020000    -1.5408750000    -2.0088810000
| 19>  H        0.4726740000     1.0132750000     1.0616060000
| 20>  H        0.2772680000     0.2381900000    -0.5267910000
| 21>  H        1.0251500000     1.8384710000    -0.3949110000
| 22>  H        2.2179610000    -0.5325600000     0.8417400000
| 23>  H        2.9789780000     0.9162790000    -1.5697560000
| 24>  H        2.3699260000    -0.7284790000    -1.5940030000
| 25>  H        4.5535060000    -0.0267890000     1.2046180000
| 26>  H        6.0064400000    -0.8893360000     0.4366760000
| 27>  H        6.2366220000    -1.8805040000    -3.0288070000
| 28>  H        6.1877910000    -2.3821610000    -1.3184080000
| 29>  H        6.7882160000    -0.7609380000    -1.7529040000
| 30> *
| 31>
| 32>                          ****END OF INPUT****
 Total Charge           Charge          ....    0
 Multiplicity           Mult            ....    1
 Number of Electrons    NEL             ....   56
 Basis Dimension        Dim             ....  153

MULLIKEN ATOMIC CHARGES
-----------------------
   0 C :    0.066058
   1 N :   -0.273270
   2 C :    0.182484
   3 C :   -0.018991
   4 C :   -0.092483
   5 O :   -0.277228
   6 C :    0.141431
   7 H :    0.022719
   8 H :   -0.003388
   9 H :    0.020220
  10 H :    0.106169
  11 H :    0.023385
  12 H :   -0.000202
  13 H :    0.009345
  14 H :    0.005158
  15 H :    0.032224
  16 H :    0.026443
  17 H :    0.029927
Sum of atomic charges:   -0.0000000

LOEWDIN ATOMIC CHARGES
----------------------
   0 C :   -0.005948
   1 N :   -0.095274
   2 C :    0.008413
   3 C :    0.016577
   4 C :   -0.160373
   5 O :   -0.071904
   6 C :    0.061757
   7 H :    0.023731
   8 H :   -0.001209
   9 H :    0.022408
  10 H :    0.056227
  11 H :    0.034373
  12 H :    0.008858
  13 H :    0.025976
  14 H :    0.019472
  15 H :    0.025296
  16 H :    0.015113
  17 H :    0.016507

  Mayer bond orders larger than 0.1
B(  0-C ,  1-N ) :   1.0702 B(  0-C ,  7-H ) :   0.9720 B(  0-C ,  8-H ) :   0.9437
B(  0-C ,  9-H ) :   0.9677 B(  1-N ,  2-C ) :   1.0578 B(  1-N , 10-H ) :   0.9367
B(  2-C ,  3-C ) :   0.9953 B(  2-C , 11-H ) :   0.9053 B(  2-C , 12-H ) :   0.9035
B(  3-C ,  4-C ) :   1.8797 B(  3-C ,  5-O ) :   1.1449 B(  4-C , 13-H ) :   0.9004
B(  4-C , 14-H ) :   0.9320 B(  5-O ,  6-C ) :   0.9861 B(  6-C , 15-H ) :   0.9727
B(  6-C , 16-H ) :   0.9598 B(  6-C , 17-H ) :   0.9596

FINAL SINGLE POINT ENERGY      -326.423730941734

DIPOLE MOMENT
-------------
                                X             Y             Z
Electronic contribution:      1.91799      -1.00725      -1.49550
Nuclear contribution   :     -1.90363       0.68852       1.36489
                        -----------------------------------------
Total Dipole Moment    :      0.01436      -0.31873      -0.13061
                        -----------------------------------------
Magnitude (a.u.)       :      0.34475
Magnitude (Debye)      :      0.87630

                             ****ORCA TERMINATED NORMALLY****
TOTAL RUN TIME: 0 days 0 hours 0 minutes 8 seconds 138 msec
