                         Program Version 3.0.3 - RELEASE   -
|  1> ! RI PBE def2-SVP def2-SVP/J NBO PAL2
|  2> % maxcore 2000
|  3> % output
|  4>     # printlevel mini
|  5>     print[ P_Basis ] 0
|  6>     print[ P_SCFInfo ] 1
|  7>     print[ P_SCFIterInfo ] 1
|  8>     print[ P_OrbEn ] 0
|  9>     print[ P_Cartesian ] 0
| 10> end
| 11> *xyz 0 1
| 12>  C        1.2865010000    -0.3391070000     2.4532760000
| 13>  N        2.7268760000    -0.3093420000     2.3533440000
| 14>  C        3.2105520000    -0.7112830000     1.0528390000
| 15>  C        4.7277910000    -0.7326220000     1.0034060000
| 16>  C        5.3445900000     0.6318160000     1.2558850000
| 17>  O        5.1358970000    -1.6984180000     1.9583880000
| 18>  C        6.4719440000    -2.1023190000     1.8509310000
| 19>  H        0.9802890000    -0.0939900000     3.4722570000
| 20>  H        0.8378000000    -1.3105500000     2.1830910000
| 21>  H        0.8550200000     0.4160440000     1.7893180000
| 22>  H        3.1395690000    -0.9192700000     3.0484110000
| 23>  H        2.8446050000     0.0015940000     0.3050300000
| 24>  H        2.8426860000    -1.7089560000     0.7535520000
| 25>  H        5.0247670000    -1.0849850000     0.0021050000
| 26>  H        5.0414070000     1.0083280000     2.2332560000
| 27>  H        5.0045780000     1.3397970000     0.4962990000
| 28>  H        6.4344710000     0.5959830000     1.2063870000
| 29>  H        6.6140810000    -2.9378600000     2.5374070000
| 30>  H        7.1761500000    -1.3067310000     2.1234970000
| 31>  H        6.7069060000    -2.4402180000     0.8314930000
| 32> *
| 33>
| 34>                          ****END OF INPUT****
 Total Charge           Charge          ....    0
 Multiplicity           Mult            ....    1
 Number of Electrons    NEL             ....   58
 Basis Dimension        Dim             ....  163

MULLIKEN ATOMIC CHARGES
-----------------------
   0 C :    0.076333
   1 N :   -0.275646
   2 C :    0.144363
   3 C :    0.056482
   4 C :    0.011977
   5 O :   -0.354898
   6 C :    0.154087
   7 H :    0.018139
   8 H :   -0.010147
   9 H :    0.013564
  10 H :    0.106719
  11 H :   -0.002103
  12 H :   -0.020519
  13 H :   -0.016939
  14 H :    0.023590
  15 H :    0.014864
  16 H :    0.020526
  17 H :    0.029288
  18 H :    0.010821
  19 H :   -0.000502
Sum of atomic charges:   -0.0000000

LOEWDIN ATOMIC CHARGES
----------------------
   0 C :   -0.006310
   1 N :   -0.100163
   2 C :    0.009241
   3 C :    0.042986
   4 C :   -0.075915
   5 O :   -0.150798
   6 C :    0.049776
   7 H :    0.021802
   8 H :   -0.003436
   9 H :    0.019320
  10 H :    0.052404
  11 H :    0.020975
  12 H :   -0.001807
  13 H :    0.006197
  14 H :    0.028452
  15 H :    0.031891
  16 H :    0.022779
  17 H :    0.023106
  18 H :    0.004611
  19 H :    0.004890

  Mayer bond orders larger than 0.1
B(  0-C ,  1-N ) :   1.0733 B(  0-C ,  7-H ) :   0.9728 B(  0-C ,  8-H ) :   0.9424
B(  0-C ,  9-H ) :   0.9678 B(  1-N ,  2-C ) :   1.0573 B(  1-N , 10-H ) :   0.9349
B(  2-C ,  3-C ) :   1.0555 B(  2-C , 11-H ) :   0.9225 B(  2-C , 12-H ) :   0.9068
B(  3-C ,  4-C ) :   1.0773 B(  3-C ,  5-O ) :   0.9985 B(  3-C , 13-H ) :   0.9084
B(  4-C , 14-H ) :   0.9469 B(  4-C , 15-H ) :   0.9488 B(  4-C , 16-H ) :   0.9529
B(  5-O ,  6-C ) :   1.0203 B(  6-C , 17-H ) :   0.9750 B(  6-C , 18-H ) :   0.9565
B(  6-C , 19-H ) :   0.9529

FINAL SINGLE POINT ENERGY      -327.636422226565

DIPOLE MOMENT
-------------
                                X             Y             Z
Electronic contribution:      0.51631      -1.57975       1.00944
Nuclear contribution   :     -0.28159       1.42015      -1.22430
                        -----------------------------------------
Total Dipole Moment    :      0.23473      -0.15960      -0.21486
                        -----------------------------------------
Magnitude (a.u.)       :      0.35600
Magnitude (Debye)      :      0.90487

                             ****ORCA TERMINATED NORMALLY****
TOTAL RUN TIME: 0 days 0 hours 0 minutes 7 seconds 671 msec
