                         Program Version 3.0.3 - RELEASE   -
|  1> ! RI PBE def2-SVP def2-SVP/J NBO PAL2
|  2> % maxcore 2000
|  3> % output
|  4>     # printlevel mini
|  5>     print[ P_Basis ] 0
|  6>     print[ P_SCFInfo ] 1
|  7>     print[ P_SCFIterInfo ] 1
|  8>     print[ P_OrbEn ] 0
|  9>     print[ P_Cartesian ] 0
| 10> end
| 11> *xyz 0 1
| 12>  C        0.9680880000    -0.3035640000    -0.1424180000
| 13>  N        2.3503250000     0.1169980000    -0.1791060000
| 14>  C        2.7605360000     0.6382900000    -1.4631480000
| 15>  C        2.7691400000     0.8952750000     0.9442700000
| 16>  C        2.1579690000     2.2773210000     1.1002430000
| 17>  O        2.6410570000     2.8935830000     2.1948930000
| 18>  O        1.3524910000     2.7884890000     0.3718830000
| 19>  H        0.8030410000    -1.0562370000    -0.9176000000
| 20>  H        0.2520240000     0.5156610000    -0.2999200000
| 21>  H        0.7529710000    -0.7697870000     0.8229270000
| 22>  H        2.5837900000    -0.1205180000    -2.2297220000
| 23>  H        3.8333540000     0.8488240000    -1.4468000000
| 24>  H        2.2308680000     1.5554580000    -1.7579960000
| 25>  H        3.8563430000     1.0318590000     0.9188510000
| 26>  H        2.5613490000     0.3515310000     1.8729710000
| 27>  H        2.2156740000     3.7618270000     2.2367610000
| 28> *
| 29>
| 30>                          ****END OF INPUT****
 Total Charge           Charge          ....    0
 Multiplicity           Mult            ....    1
 Number of Electrons    NEL             ....   56
 Basis Dimension        Dim             ....  143

MULLIKEN ATOMIC CHARGES
-----------------------
   0 C :    0.087541
   1 N :   -0.325106
   2 C :    0.086098
   3 C :    0.091834
   4 C :    0.035419
   5 O :   -0.141649
   6 O :   -0.182020
   7 H :    0.018548
   8 H :    0.019724
   9 H :    0.011295
  10 H :    0.020226
  11 H :    0.012145
  12 H :    0.016433
  13 H :    0.043512
  14 H :    0.041966
  15 H :    0.164032
Sum of atomic charges:   -0.0000000

LOEWDIN ATOMIC CHARGES
----------------------
   0 C :    0.003010
   1 N :   -0.107153
   2 C :    0.002527
   3 C :   -0.019112
   4 C :    0.028003
   5 O :   -0.019863
   6 O :   -0.150019
   7 H :    0.022027
   8 H :    0.005765
   9 H :    0.020011
  10 H :    0.022216
  11 H :    0.020293
  12 H :    0.005051
  13 H :    0.042157
  14 H :    0.041794
  15 H :    0.083295

  Mayer bond orders larger than 0.1
B(  0-C ,  1-N ) :   1.0265 B(  0-C ,  7-H ) :   0.9670 B(  0-C ,  8-H ) :   0.9479
B(  0-C ,  9-H ) :   0.9641 B(  1-N ,  2-C ) :   1.0325 B(  1-N ,  3-C ) :   1.1195
B(  2-C , 10-H ) :   0.9670 B(  2-C , 11-H ) :   0.9630 B(  2-C , 12-H ) :   0.9465
B(  3-C ,  4-C ) :   0.9001 B(  3-C , 13-H ) :   0.9193 B(  3-C , 14-H ) :   0.9206
B(  4-C ,  5-O ) :   1.2257 B(  4-C ,  6-O ) :   2.1025 B(  5-O , 15-H ) :   0.9463

FINAL SINGLE POINT ENERGY      -362.343113941646

DIPOLE MOMENT
-------------
                                X             Y             Z
Electronic contribution:      0.32979       5.82082       4.59845
Nuclear contribution   :     -0.10893      -5.75495      -4.25139
                        -----------------------------------------
Total Dipole Moment    :      0.22086       0.06587       0.34706
                        -----------------------------------------
Magnitude (a.u.)       :      0.41662
Magnitude (Debye)      :      1.05895

                             ****ORCA TERMINATED NORMALLY****
TOTAL RUN TIME: 0 days 0 hours 0 minutes 6 seconds 968 msec
