                         Program Version 3.0.3 - RELEASE   -
|  1> ! RI PBE def2-SVP def2-SVP/J NBO PAL2
|  2> % maxcore 2000
|  3> % output
|  4>     # printlevel mini
|  5>     print[ P_Basis ] 0
|  6>     print[ P_SCFInfo ] 1
|  7>     print[ P_SCFIterInfo ] 1
|  8>     print[ P_OrbEn ] 0
|  9>     print[ P_Cartesian ] 0
| 10> end
| 11> *xyz 0 1
| 12>  C        1.1269710000     0.4821880000    -0.0217800000
| 13>  N        2.5439610000     0.2610460000     0.1186380000
| 14>  C        3.0654160000    -0.7087650000     0.8860080000
| 15>  C        4.3737730000    -0.9848950000     1.0729350000
| 16>  C        4.7355690000    -2.0802860000     1.9459810000
| 17>  O        6.0784880000    -2.2353310000     2.0345680000
| 18>  O        3.9799420000    -2.8081750000     2.5534100000
| 19>  H        0.9625060000     1.3229540000    -0.6947300000
| 20>  H        0.6590050000     0.7233060000     0.9374890000
| 21>  H        0.6220800000    -0.3911110000    -0.4457760000
| 22>  H        3.1719330000     0.8630370000    -0.3839680000
| 23>  H        2.3406900000    -1.3305140000     1.4068560000
| 24>  H        5.1636880000    -0.4186440000     0.5950200000
| 25>  H        6.2130680000    -2.9821080000     2.6329400000
| 26> *
| 27>
| 28>                          ****END OF INPUT****
 Total Charge           Charge          ....    0
 Multiplicity           Mult            ....    1
 Number of Electrons    NEL             ....   54
 Basis Dimension        Dim             ....  133

MULLIKEN ATOMIC CHARGES
-----------------------
   0 C :    0.064122
   1 N :   -0.132283
   2 C :    0.082209
   3 C :   -0.119092
   4 C :    0.090616
   5 O :   -0.157274
   6 O :   -0.222862
   7 H :    0.033391
   8 H :    0.044734
   9 H :    0.046369
  10 H :    0.119270
  11 H :    0.015040
  12 H :   -0.017532
  13 H :    0.153293
Sum of atomic charges:   -0.0000000

LOEWDIN ATOMIC CHARGES
----------------------
   0 C :    0.010007
   1 N :    0.021236
   2 C :    0.050537
   3 C :   -0.171031
   4 C :    0.027590
   5 O :   -0.037005
   6 O :   -0.204281
   7 H :    0.033673
   8 H :    0.028354
   9 H :    0.028581
  10 H :    0.078755
  11 H :    0.034379
  12 H :    0.023054
  13 H :    0.076150

  Mayer bond orders larger than 0.1
B(  0-C ,  1-N ) :   1.0234 B(  0-C ,  7-H ) :   0.9726 B(  0-C ,  8-H ) :   0.9653
B(  0-C ,  9-H ) :   0.9657 B(  1-N ,  2-C ) :   1.2923 B(  1-N , 10-H ) :   0.9407
B(  2-C ,  3-C ) :   1.6064 B(  2-C , 11-H ) :   0.9346 B(  3-C ,  4-C ) :   1.0580
B(  3-C , 12-H ) :   0.9541 B(  4-C ,  5-O ) :   1.2192 B(  4-C ,  6-O ) :   2.0487
B(  5-O , 13-H ) :   0.9523

FINAL SINGLE POINT ENERGY      -361.156596187840

DIPOLE MOMENT
-------------
                                X             Y             Z
Electronic contribution:      5.80464      -4.42289       3.40902
Nuclear contribution   :     -6.41515       5.60859      -4.34791
                        -----------------------------------------
Total Dipole Moment    :     -0.61052       1.18571      -0.93889
                        -----------------------------------------
Magnitude (a.u.)       :      1.63100
Magnitude (Debye)      :      4.14567

                             ****ORCA TERMINATED NORMALLY****
TOTAL RUN TIME: 0 days 0 hours 0 minutes 6 seconds 392 msec
