                         Program Version 3.0.3 - RELEASE   -
|  1> ! RI PBE def2-SVP def2-SVP/J NBO PAL2
|  2> % maxcore 2000
|  3> % output
|  4>     # printlevel mini
|  5>     print[ P_Basis ] 0
|  6>     print[ P_SCFInfo ] 1
|  7>     print[ P_SCFIterInfo ] 1
|  8>     print[ P_OrbEn ] 0
|  9>     print[ P_Cartesian ] 0
| 10> end
| 11> *xyz 0 1
| 12>  C        2.7523730000     0.1374830000    -1.3525980000
| 13>  N        2.4855680000    -0.0273260000     0.0626240000
| 14>  C        3.0152670000     1.0262650000     0.8878160000
| 15>  C        2.5202760000     0.8869770000     2.3237950000
| 16>  C        4.5383460000     1.0558500000     0.9114220000
| 17>  O        5.0237390000     2.2799100000     1.1762210000
| 18>  O        5.2451210000     0.0981950000     0.7480930000
| 19>  H        2.3327170000    -0.7088720000    -1.8989590000
| 20>  H        3.8202400000     0.2108750000    -1.6064050000
| 21>  H        2.2522220000     1.0408120000    -1.7127860000
| 22>  H        2.8641230000    -0.9123620000     0.3804870000
| 23>  H        2.6733990000     1.9860490000     0.4868310000
| 24>  H        2.8548870000    -0.0625220000     2.7497190000
| 25>  H        1.4302210000     0.9017000000     2.3301970000
| 26>  H        2.8941740000     1.6968690000     2.9522040000
| 27>  H        5.9874270000     2.1968870000     1.2182310000
| 28> *
| 29>
| 30>                          ****END OF INPUT****
 Total Charge           Charge          ....    0
 Multiplicity           Mult            ....    1
 Number of Electrons    NEL             ....   56
 Basis Dimension        Dim             ....  143

MULLIKEN ATOMIC CHARGES
-----------------------
   0 C :    0.067717
   1 N :   -0.227528
   2 C :   -0.020165
   3 C :    0.028567
   4 C :    0.049709
   5 O :   -0.131868
   6 O :   -0.188303
   7 H :    0.024485
   8 H :    0.008903
   9 H :    0.015110
  10 H :    0.101627
  11 H :    0.016680
  12 H :    0.019896
  13 H :    0.042015
  14 H :    0.030559
  15 H :    0.162597
Sum of atomic charges:   -0.0000000

LOEWDIN ATOMIC CHARGES
----------------------
   0 C :   -0.005593
   1 N :   -0.084246
   2 C :   -0.027172
   3 C :   -0.052705
   4 C :    0.028538
   5 O :   -0.013493
   6 O :   -0.157130
   7 H :    0.025291
   8 H :    0.001116
   9 H :    0.020779
  10 H :    0.054696
  11 H :    0.031461
  12 H :    0.028682
  13 H :    0.034809
  14 H :    0.031522
  15 H :    0.083444

  Mayer bond orders larger than 0.1
B(  0-C ,  1-N ) :   1.0584 B(  0-C ,  7-H ) :   0.9738 B(  0-C ,  8-H ) :   0.9456
B(  0-C ,  9-H ) :   0.9653 B(  1-N ,  2-C ) :   1.0891 B(  1-N , 10-H ) :   0.9372
B(  2-C ,  3-C ) :   1.0798 B(  2-C ,  4-C ) :   0.8821 B(  2-C , 11-H ) :   0.9000
B(  3-C , 12-H ) :   0.9538 B(  3-C , 13-H ) :   0.9597 B(  3-C , 14-H ) :   0.9553
B(  4-C ,  5-O ) :   1.2391 B(  4-C ,  6-O ) :   2.1087 B(  5-O , 15-H ) :   0.9463

FINAL SINGLE POINT ENERGY      -362.353189668205

DIPOLE MOMENT
-------------
                                X             Y             Z
Electronic contribution:      5.78558       1.10430       1.23142
Nuclear contribution   :     -5.68511      -0.69903      -1.12005
                        -----------------------------------------
Total Dipole Moment    :      0.10047       0.40528       0.11137
                        -----------------------------------------
Magnitude (a.u.)       :      0.43214
Magnitude (Debye)      :      1.09842

                             ****ORCA TERMINATED NORMALLY****
TOTAL RUN TIME: 0 days 0 hours 0 minutes 7 seconds 635 msec
