                         Program Version 3.0.3 - RELEASE   -
|  1> ! RI PBE def2-SVP def2-SVP/J NBO PAL2
|  2> % maxcore 2000
|  3> % output
|  4>     # printlevel mini
|  5>     print[ P_Basis ] 0
|  6>     print[ P_SCFInfo ] 1
|  7>     print[ P_SCFIterInfo ] 1
|  8>     print[ P_OrbEn ] 0
|  9>     print[ P_Cartesian ] 0
| 10> end
| 11> *xyz 0 1
| 12>  C        2.5232840000    -2.6436110000    -0.2373190000
| 13>  N        2.3532650000    -1.3752750000    -0.9057780000
| 14>  C        3.4611990000    -0.4577670000    -0.7874780000
| 15>  C        4.7853840000    -0.8930400000    -1.4137350000
| 16>  C        4.7143180000    -1.0381940000    -2.9051460000
| 17>  O        5.8901500000    -1.4259110000    -3.4284230000
| 18>  O        3.7443510000    -0.8392710000    -3.5885640000
| 19>  H        1.6173970000    -3.2410320000    -0.3579970000
| 20>  H        2.6623100000    -2.4750400000     0.8351190000
| 21>  H        3.3712590000    -3.2549250000    -0.5883190000
| 22>  H        2.1226040000    -1.5016050000    -1.8823830000
| 23>  H        3.1594280000     0.4936370000    -1.2335410000
| 24>  H        3.6351760000    -0.2659110000     0.2768780000
| 25>  H        5.1410910000    -1.8426600000    -1.0020400000
| 26>  H        5.5761120000    -0.1680930000    -1.1918130000
| 27>  H        5.7587730000    -1.4923930000    -4.3849610000
| 28> *
| 29>
| 30>                          ****END OF INPUT****
 Total Charge           Charge          ....    0
 Multiplicity           Mult            ....    1
 Number of Electrons    NEL             ....   56
 Basis Dimension        Dim             ....  143

MULLIKEN ATOMIC CHARGES
-----------------------
   0 C :    0.047289
   1 N :   -0.250123
   2 C :    0.100646
   3 C :   -0.043395
   4 C :    0.058456
   5 O :   -0.136197
   6 O :   -0.194129
   7 H :    0.027388
   8 H :    0.018511
   9 H :   -0.001737
  10 H :    0.104816
  11 H :    0.015196
  12 H :    0.005514
  13 H :    0.041188
  14 H :    0.042004
  15 H :    0.164573
Sum of atomic charges:   -0.0000000

LOEWDIN ATOMIC CHARGES
----------------------
   0 C :   -0.011672
   1 N :   -0.096520
   2 C :    0.010091
   3 C :   -0.090631
   4 C :    0.045799
   5 O :   -0.015250
   6 O :   -0.160777
   7 H :    0.025369
   8 H :    0.021057
   9 H :   -0.006023
  10 H :    0.051003
  11 H :    0.026666
  12 H :    0.023552
  13 H :    0.043507
  14 H :    0.049260
  15 H :    0.084569

  Mayer bond orders larger than 0.1
B(  0-C ,  1-N ) :   1.0731 B(  0-C ,  7-H ) :   0.9718 B(  0-C ,  8-H ) :   0.9659
B(  0-C ,  9-H ) :   0.9409 B(  1-N ,  2-C ) :   1.1277 B(  1-N , 10-H ) :   0.9470
B(  2-C ,  3-C ) :   1.0461 B(  2-C , 11-H ) :   0.9387 B(  2-C , 12-H ) :   0.9313
B(  3-C ,  4-C ) :   0.9716 B(  3-C , 13-H ) :   0.9071 B(  3-C , 14-H ) :   0.9022
B(  4-C ,  5-O ) :   1.2560 B(  4-C ,  6-O ) :   2.0718 B(  5-O , 15-H ) :   0.9484

FINAL SINGLE POINT ENERGY      -362.351814730935

DIPOLE MOMENT
-------------
                                X             Y             Z
Electronic contribution:      2.96664       2.00568      -7.32429
Nuclear contribution   :     -2.25725      -2.26618       7.29184
                        -----------------------------------------
Total Dipole Moment    :      0.70939      -0.26050      -0.03245
                        -----------------------------------------
Magnitude (a.u.)       :      0.75640
Magnitude (Debye)      :      1.92262

                             ****ORCA TERMINATED NORMALLY****
TOTAL RUN TIME: 0 days 0 hours 0 minutes 6 seconds 852 msec
