                         Program Version 3.0.3 - RELEASE   -
|  1> ! RI PBE def2-SVP def2-SVP/J NBO PAL2
|  2> % maxcore 2000
|  3> % output
|  4>     # printlevel mini
|  5>     print[ P_Basis ] 0
|  6>     print[ P_SCFInfo ] 1
|  7>     print[ P_SCFIterInfo ] 1
|  8>     print[ P_OrbEn ] 0
|  9>     print[ P_Cartesian ] 0
| 10> end
| 11> *xyz 0 1
| 12>  C        1.1042720000     0.3610270000     0.2706320000
| 13>  N        2.5205650000     0.1106420000     0.3015250000
| 14>  C        3.0097790000    -0.7899880000     1.0655180000
| 15>  C        2.2564650000    -1.6492000000     2.0323350000
| 16>  N        4.3595440000    -1.0231580000     0.9431930000
| 17>  C        5.1943940000    -1.2720890000     2.0900320000
| 18>  O        4.9813260000    -0.1040210000     0.1037670000
| 19>  H        0.9082960000     1.2133360000    -0.3808670000
| 20>  H        0.6880330000     0.5983180000     1.2576090000
| 21>  H        0.5411130000    -0.4909940000    -0.1321350000
| 22>  H        1.2319030000    -1.7868290000     1.6878470000
| 23>  H        2.2140580000    -1.1780110000     3.0188170000
| 24>  H        2.7162990000    -2.6307050000     2.1405170000
| 25>  H        4.7421510000    -2.0396890000     2.7156270000
| 26>  H        5.3545930000    -0.3617580000     2.6816330000
| 27>  H        6.1603160000    -1.6362720000     1.7401140000
| 28>  H        4.1950020000     0.4160030000    -0.2004460000
| 29> *
| 30>
| 31>                          ****END OF INPUT****
 Total Charge           Charge          ....    0
 Multiplicity           Mult            ....    1
 Number of Electrons    NEL             ....   56
 Basis Dimension        Dim             ....  148

MULLIKEN ATOMIC CHARGES
-----------------------
   0 C :    0.070947
   1 N :   -0.289340
   2 C :   -0.030721
   3 C :    0.024655
   4 N :   -0.108323
   5 C :    0.111098
   6 O :   -0.211157
   7 H :    0.027754
   8 H :    0.012371
   9 H :    0.025149
  10 H :    0.033154
  11 H :    0.048863
  12 H :    0.044427
  13 H :    0.025044
  14 H :    0.021210
  15 H :    0.042460
  16 H :    0.152407
Sum of atomic charges:   -0.0000000

LOEWDIN ATOMIC CHARGES
----------------------
   0 C :   -0.012518
   1 N :   -0.169431
   2 C :   -0.007303
   3 C :   -0.074419
   4 N :    0.052001
   5 C :    0.007431
   6 O :   -0.089066
   7 H :    0.024931
   8 H :    0.014037
   9 H :    0.019394
  10 H :    0.041930
  11 H :    0.045953
  12 H :    0.039072
  13 H :    0.027775
  14 H :    0.015188
  15 H :    0.031706
  16 H :    0.033321

  Mayer bond orders larger than 0.1
B(  0-C ,  1-N ) :   1.0461 B(  0-C ,  7-H ) :   0.9720 B(  0-C ,  8-H ) :   0.9540
B(  0-C ,  9-H ) :   0.9517 B(  1-N ,  2-C ) :   1.7181 B(  1-N , 16-H ) :   0.1777
B(  2-C ,  3-C ) :   1.0966 B(  2-C ,  4-N ) :   1.1620 B(  3-C , 10-H ) :   0.9335
B(  3-C , 11-H ) :   0.9379 B(  3-C , 12-H ) :   0.9401 B(  4-N ,  5-C ) :   1.0006
B(  4-N ,  6-O ) :   0.9945 B(  5-C , 13-H ) :   0.9557 B(  5-C , 14-H ) :   0.9489
B(  5-C , 15-H ) :   0.9652 B(  6-O , 16-H ) :   0.8875

FINAL SINGLE POINT ENERGY      -342.431307834687

DIPOLE MOMENT
-------------
                                X             Y             Z
Electronic contribution:      3.97463       1.20905      -3.57868
Nuclear contribution   :     -4.59489      -1.64486       4.49243
                        -----------------------------------------
Total Dipole Moment    :     -0.62026      -0.43582       0.91375
                        -----------------------------------------
Magnitude (a.u.)       :      1.18726
Magnitude (Debye)      :      3.01778

                             ****ORCA TERMINATED NORMALLY****
TOTAL RUN TIME: 0 days 0 hours 0 minutes 7 seconds 778 msec
