                         Program Version 3.0.3 - RELEASE   -
|  1> ! RI PBE def2-SVP def2-SVP/J NBO PAL2
|  2> % maxcore 2000
|  3> % output
|  4>     # printlevel mini
|  5>     print[ P_Basis ] 0
|  6>     print[ P_SCFInfo ] 1
|  7>     print[ P_SCFIterInfo ] 1
|  8>     print[ P_OrbEn ] 0
|  9>     print[ P_Cartesian ] 0
| 10> end
| 11> *xyz 0 1
| 12>  C        1.1730770000     0.1367470000    -0.1854570000
| 13>  N        2.4983550000    -0.3280730000     0.1338690000
| 14>  C        2.6503190000    -1.5305100000     0.4954130000
| 15>  C        1.5605740000    -2.5542290000     0.6303430000
| 16>  N        3.9255380000    -1.9986420000     0.8086970000
| 17>  C        5.0850390000    -1.2678750000     0.7666900000
| 18>  O        6.1583980000    -1.7387870000     1.0502320000
| 19>  H        1.2219850000     1.1862670000    -0.4759890000
| 20>  H        0.4848340000     0.0604560000     0.6665280000
| 21>  H        0.7233930000    -0.4174890000    -1.0197140000
| 22>  H        0.8119600000    -2.2120690000     1.3489700000
| 23>  H        1.9334700000    -3.5246640000     0.9577560000
| 24>  H        1.0497240000    -2.6860050000    -0.3265230000
| 25>  H        4.0328620000    -2.9588200000     1.0952840000
| 26>  H        4.9222420000    -0.2294970000     0.4484900000
| 27> *
| 28>
| 29>                          ****END OF INPUT****
 Total Charge           Charge          ....    0
 Multiplicity           Mult            ....    1
 Number of Electrons    NEL             ....   54
 Basis Dimension        Dim             ....  138

MULLIKEN ATOMIC CHARGES
-----------------------
   0 C :    0.072300
   1 N :   -0.194483
   2 C :   -0.119828
   3 C :    0.048519
   4 N :   -0.046094
   5 C :    0.137827
   6 O :   -0.209262
   7 H :    0.034344
   8 H :    0.016526
   9 H :    0.010710
  10 H :    0.057508
  11 H :    0.011440
  12 H :    0.056037
  13 H :    0.111507
  14 H :    0.012951
Sum of atomic charges:   -0.0000000

LOEWDIN ATOMIC CHARGES
----------------------
   0 C :   -0.011452
   1 N :   -0.139838
   2 C :    0.014538
   3 C :   -0.076764
   4 N :    0.022700
   5 C :    0.079647
   6 O :   -0.158739
   7 H :    0.025527
   8 H :    0.019077
   9 H :    0.018175
  10 H :    0.049767
  11 H :    0.031572
  12 H :    0.049493
  13 H :    0.078252
  14 H :   -0.001954

  Mayer bond orders larger than 0.1
B(  0-C ,  1-N ) :   1.0534 B(  0-C ,  7-H ) :   0.9732 B(  0-C ,  8-H ) :   0.9482
B(  0-C ,  9-H ) :   0.9465 B(  1-N ,  2-C ) :   1.9016 B(  2-C ,  3-C ) :   1.0523
B(  2-C ,  4-N ) :   1.1161 B(  3-C , 10-H ) :   0.9408 B(  3-C , 11-H ) :   0.9339
B(  3-C , 12-H ) :   0.9406 B(  4-N ,  5-C ) :   1.1263 B(  4-N , 13-H ) :   0.9034
B(  5-C ,  6-O ) :   2.0784 B(  5-C , 14-H ) :   0.9268

FINAL SINGLE POINT ENERGY      -341.304354579665

DIPOLE MOMENT
-------------
                                X             Y             Z
Electronic contribution:      8.78532      -0.52157       1.39431
Nuclear contribution   :    -10.42092      -0.07979      -1.45466
                        -----------------------------------------
Total Dipole Moment    :     -1.63561      -0.60136      -0.06036
                        -----------------------------------------
Magnitude (a.u.)       :      1.74370
Magnitude (Debye)      :      4.43213

                             ****ORCA TERMINATED NORMALLY****
TOTAL RUN TIME: 0 days 0 hours 0 minutes 6 seconds 671 msec
