                         Program Version 3.0.3 - RELEASE   -
|  1> ! RI PBE def2-SVP def2-SVP/J NBO PAL2
|  2> % maxcore 2000
|  3> % output
|  4>     # printlevel mini
|  5>     print[ P_Basis ] 0
|  6>     print[ P_SCFInfo ] 1
|  7>     print[ P_SCFIterInfo ] 1
|  8>     print[ P_OrbEn ] 0
|  9>     print[ P_Cartesian ] 0
| 10> end
| 11> *xyz 0 1
| 12>  C        1.0768410000     0.0175600000     0.1642170000
| 13>  N        2.5135290000     0.0068050000    -0.0301590000
| 14>  C        3.2756270000     1.2393980000    -0.0522740000
| 15>  C        3.1486740000    -1.1484600000    -0.1914030000
| 16>  N        4.4308770000    -1.2113350000    -0.3686510000
| 17>  C        4.9324540000    -2.4954630000    -0.5195490000
| 18>  O        4.3150040000    -3.5365080000    -0.5016090000
| 19>  H        0.7389840000     1.0455200000     0.2770230000
| 20>  H        0.7926730000    -0.5330670000     1.0645190000
| 21>  H        0.5558740000    -0.4181340000    -0.6920820000
| 22>  H        2.6006560000     2.0804770000     0.0936130000
| 23>  H        3.7975300000     1.3495500000    -1.0050970000
| 24>  H        4.0319880000     1.2358530000     0.7353120000
| 25>  H        2.5214130000    -2.0439910000    -0.1652300000
| 26>  H        6.0257870000    -2.4892840000    -0.6687290000
| 27> *
| 28>
| 29>                          ****END OF INPUT****
 Total Charge           Charge          ....    0
 Multiplicity           Mult            ....    1
 Number of Electrons    NEL             ....   54
 Basis Dimension        Dim             ....  138

MULLIKEN ATOMIC CHARGES
-----------------------
   0 C :    0.089472
   1 N :   -0.236055
   2 C :    0.109586
   3 C :    0.100348
   4 N :   -0.223488
   5 C :    0.130878
   6 O :   -0.219433
   7 H :    0.036082
   8 H :    0.050875
   9 H :    0.052240
  10 H :    0.024144
  11 H :    0.046521
  12 H :    0.050388
  13 H :    0.007631
  14 H :   -0.019190
Sum of atomic charges:   -0.0000000

LOEWDIN ATOMIC CHARGES
----------------------
   0 C :    0.022308
   1 N :    0.013972
   2 C :    0.023690
   3 C :    0.075036
   4 N :   -0.196176
   5 C :    0.047134
   6 O :   -0.167668
   7 H :    0.032944
   8 H :    0.033190
   9 H :    0.033334
  10 H :    0.024978
  11 H :    0.035400
  12 H :    0.036047
  13 H :    0.003087
  14 H :   -0.017277

  Mayer bond orders larger than 0.1
B(  0-C ,  1-N ) :   0.9828 B(  0-C ,  7-H ) :   0.9672 B(  0-C ,  8-H ) :   0.9669
B(  0-C ,  9-H ) :   0.9671 B(  1-N ,  2-C ) :   0.9883 B(  1-N ,  3-C ) :   1.3165
B(  2-C , 10-H ) :   0.9624 B(  2-C , 11-H ) :   0.9621 B(  2-C , 12-H ) :   0.9628
B(  3-C ,  4-N ) :   1.5901 B(  3-C , 13-H ) :   0.9267 B(  4-N ,  5-C ) :   1.1918
B(  5-C ,  6-O ) :   2.0148 B(  5-C , 14-H ) :   0.9394

FINAL SINGLE POINT ENERGY      -341.291020495807

DIPOLE MOMENT
-------------
                                X             Y             Z
Electronic contribution:      4.20013      -6.18422      -0.96932
Nuclear contribution   :     -5.47579       7.81851       1.24442
                        -----------------------------------------
Total Dipole Moment    :     -1.27566       1.63428       0.27510
                        -----------------------------------------
Magnitude (a.u.)       :      2.09138
Magnitude (Debye)      :      5.31587

                             ****ORCA TERMINATED NORMALLY****
TOTAL RUN TIME: 0 days 0 hours 0 minutes 6 seconds 918 msec
