                         Program Version 3.0.3 - RELEASE   -
|  1> ! RI PBE def2-SVP def2-SVP/J NBO PAL2
|  2> % maxcore 2000
|  3> % output
|  4>     # printlevel mini
|  5>     print[ P_Basis ] 0
|  6>     print[ P_SCFInfo ] 1
|  7>     print[ P_SCFIterInfo ] 1
|  8>     print[ P_OrbEn ] 0
|  9>     print[ P_Cartesian ] 0
| 10> end
| 11> *xyz 0 1
| 12>  C        1.0721750000     0.0476430000    -0.2290270000
| 13>  N        2.5005860000    -0.0521860000    -0.0688470000
| 14>  C        3.2482840000    -0.5653020000    -1.1926500000
| 15>  C        3.0974690000     0.6710860000     0.9208220000
| 16>  N        2.5161760000     1.3758250000     1.8148270000
| 17>  C        4.6117790000     0.6375160000     1.0188090000
| 18>  O        5.0465090000     1.3717780000     2.1124340000
| 19>  H        0.7449170000    -0.6856810000    -0.9656640000
| 20>  H        0.7542130000     1.0423520000    -0.5691420000
| 21>  H        0.5615600000    -0.1748200000     0.7115310000
| 22>  H        2.7556330000    -1.4608670000    -1.5764980000
| 23>  H        4.2538140000    -0.8511440000    -0.8908400000
| 24>  H        3.3268760000     0.1601620000    -2.0133750000
| 25>  H        1.5078960000     1.4174580000     1.7316800000
| 26>  H        5.0399800000     1.0405050000     0.0887460000
| 27>  H        4.9440900000    -0.4081300000     1.0996010000
| 28>  H        4.2200220000     1.7222050000     2.5017920000
| 29> *
| 30>
| 31>                          ****END OF INPUT****
 Total Charge           Charge          ....    0
 Multiplicity           Mult            ....    1
 Number of Electrons    NEL             ....   56
 Basis Dimension        Dim             ....  148

MULLIKEN ATOMIC CHARGES
-----------------------
   0 C :    0.073030
   1 N :   -0.257148
   2 C :    0.079893
   3 C :   -0.137614
   4 N :   -0.155469
   5 C :    0.217290
   6 O :   -0.277325
   7 H :    0.029323
   8 H :    0.034955
   9 H :    0.043199
  10 H :    0.029533
  11 H :    0.046810
  12 H :    0.036380
  13 H :    0.070624
  14 H :    0.008755
  15 H :    0.018217
  16 H :    0.139549
Sum of atomic charges:   -0.0000000

LOEWDIN ATOMIC CHARGES
----------------------
   0 C :    0.010144
   1 N :   -0.045033
   2 C :    0.018017
   3 C :   -0.000698
   4 N :   -0.167227
   5 C :    0.039522
   6 O :   -0.128407
   7 H :    0.031435
   8 H :    0.019808
   9 H :    0.027707
  10 H :    0.026975
  11 H :    0.034112
  12 H :    0.019653
  13 H :    0.039490
  14 H :    0.014622
  15 H :    0.016412
  16 H :    0.043467

  Mayer bond orders larger than 0.1
B(  0-C ,  1-N ) :   1.0086 B(  0-C ,  7-H ) :   0.9597 B(  0-C ,  8-H ) :   0.9590
B(  0-C ,  9-H ) :   0.9575 B(  1-N ,  2-C ) :   1.0109 B(  1-N ,  3-C ) :   1.1673
B(  2-C , 10-H ) :   0.9609 B(  2-C , 11-H ) :   0.9552 B(  2-C , 12-H ) :   0.9599
B(  3-C ,  4-N ) :   1.9102 B(  3-C ,  5-C ) :   0.9702 B(  4-N , 13-H ) :   0.9368
B(  4-N , 16-H ) :   0.1429 B(  5-C ,  6-O ) :   1.1704 B(  5-C , 14-H ) :   0.9077
B(  5-C , 15-H ) :   0.9094 B(  6-O , 16-H ) :   0.9219

FINAL SINGLE POINT ENERGY      -342.475086588006

DIPOLE MOMENT
-------------
                                X             Y             Z
Electronic contribution:      2.24372       2.26463       4.43040
Nuclear contribution   :     -3.35380      -3.05330      -5.79806
                        -----------------------------------------
Total Dipole Moment    :     -1.11008      -0.78867      -1.36766
                        -----------------------------------------
Magnitude (a.u.)       :      1.92997
Magnitude (Debye)      :      4.90559

                             ****ORCA TERMINATED NORMALLY****
TOTAL RUN TIME: 0 days 0 hours 0 minutes 7 seconds 782 msec
