                         Program Version 3.0.3 - RELEASE   -
|  1> ! RI PBE def2-SVP def2-SVP/J NBO PAL2
|  2> % maxcore 2000
|  3> % output
|  4>     # printlevel mini
|  5>     print[ P_Basis ] 0
|  6>     print[ P_SCFInfo ] 1
|  7>     print[ P_SCFIterInfo ] 1
|  8>     print[ P_OrbEn ] 0
|  9>     print[ P_Cartesian ] 0
| 10> end
| 11> *xyz 0 1
| 12>  C        0.9539960000     0.1019670000     0.2759920000
| 13>  N        2.3861130000    -0.0936630000     0.1165570000
| 14>  C        3.1515750000     0.8861250000    -0.6131760000
| 15>  C        3.0666100000    -1.1572550000     0.6174830000
| 16>  N        4.3244790000    -1.4016350000     0.5200880000
| 17>  C        2.3552420000    -2.2348000000     1.3950610000
| 18>  O        1.1848730000    -2.2902940000     1.6539920000
| 19>  H        0.6857340000     1.0309110000    -0.2249250000
| 20>  H        0.6647040000     0.1794760000     1.3247840000
| 21>  H        0.3769590000    -0.7093490000    -0.1694840000
| 22>  H        2.4911740000     1.6791350000    -0.9569840000
| 23>  H        3.6392130000     0.4446670000    -1.4909480000
| 24>  H        3.9293590000     1.3387800000     0.0139650000
| 25>  H        4.8293700000    -0.6896560000    -0.0004740000
| 26>  H        3.0778990000    -3.0079080000     1.7147900000
| 27> *
| 28>
| 29>                          ****END OF INPUT****
 Total Charge           Charge          ....    0
 Multiplicity           Mult            ....    1
 Number of Electrons    NEL             ....   54
 Basis Dimension        Dim             ....  138

MULLIKEN ATOMIC CHARGES
-----------------------
   0 C :    0.118756
   1 N :   -0.269499
   2 C :    0.075281
   3 C :   -0.121013
   4 N :   -0.108434
   5 C :    0.168993
   6 O :   -0.141467
   7 H :    0.015619
   8 H :    0.041574
   9 H :    0.044639
  10 H :    0.029885
  11 H :    0.039003
  12 H :    0.041221
  13 H :    0.072451
  14 H :   -0.007009
Sum of atomic charges:   -0.0000000

LOEWDIN ATOMIC CHARGES
----------------------
   0 C :    0.021435
   1 N :   -0.034622
   2 C :    0.012841
   3 C :   -0.046138
   4 N :   -0.140547
   5 C :    0.086086
   6 O :   -0.095246
   7 H :    0.023768
   8 H :    0.027281
   9 H :    0.027923
  10 H :    0.030725
  11 H :    0.023618
  12 H :    0.024082
  13 H :    0.036033
  14 H :    0.002758

  Mayer bond orders larger than 0.1
B(  0-C ,  1-N ) :   0.9840 B(  0-C ,  7-H ) :   0.9576 B(  0-C ,  8-H ) :   0.9654
B(  0-C ,  9-H ) :   0.9657 B(  1-N ,  2-C ) :   1.0137 B(  1-N ,  3-C ) :   1.1878
B(  1-N ,  4-N ) :   0.1212 B(  2-C , 10-H ) :   0.9583 B(  2-C , 11-H ) :   0.9559
B(  2-C , 12-H ) :   0.9559 B(  3-C ,  4-N ) :   1.9066 B(  3-C ,  5-C ) :   0.9289
B(  4-N , 13-H ) :   0.9418 B(  5-C ,  6-O ) :   2.1478 B(  5-C , 14-H ) :   0.9165

FINAL SINGLE POINT ENERGY      -341.269800527983

DIPOLE MOMENT
-------------
                                X             Y             Z
Electronic contribution:     -0.05051      -5.45228       3.25159
Nuclear contribution   :     -0.06620       6.69103      -3.96527
                        -----------------------------------------
Total Dipole Moment    :     -0.11672       1.23875      -0.71368
                        -----------------------------------------
Magnitude (a.u.)       :      1.43439
Magnitude (Debye)      :      3.64592

                             ****ORCA TERMINATED NORMALLY****
TOTAL RUN TIME: 0 days 0 hours 0 minutes 7 seconds 258 msec
