                         Program Version 3.0.3 - RELEASE   -
|  1> ! RI PBE def2-SVP def2-SVP/J NBO PAL2
|  2> % maxcore 2000
|  3> % output
|  4>     # printlevel mini
|  5>     print[ P_Basis ] 0
|  6>     print[ P_SCFInfo ] 1
|  7>     print[ P_SCFIterInfo ] 1
|  8>     print[ P_OrbEn ] 0
|  9>     print[ P_Cartesian ] 0
| 10> end
| 11> *xyz 0 1
| 12>  C        1.2939580000     0.1819910000     0.3431800000
| 13>  N        2.6719960000    -0.1834230000     0.1366860000
| 14>  C        3.4680070000     0.5909640000    -0.7797030000
| 15>  C        3.5887520000     1.9885930000    -0.3654590000
| 16>  N        3.6560820000     3.0892200000    -0.0424510000
| 17>  C        3.2514250000    -1.2374040000     0.7695850000
| 18>  O        4.3977720000    -1.5888750000     0.6268580000
| 19>  H        0.7245940000     0.1134490000    -0.5892140000
| 20>  H        1.2112910000     1.2020710000     0.7288260000
| 21>  H        0.8503550000    -0.4995880000     1.0693170000
| 22>  H        3.0404560000     0.5677250000    -1.7888200000
| 23>  H        4.4598220000     0.1322970000    -0.8144690000
| 24>  H        2.5425910000    -1.7545100000     1.4405660000
| 25> *
| 26>
| 27>                          ****END OF INPUT****
 Total Charge           Charge          ....    0
 Multiplicity           Mult            ....    1
 Number of Electrons    NEL             ....   52
 Basis Dimension        Dim             ....  128

MULLIKEN ATOMIC CHARGES
-----------------------
   0 C :    0.087202
   1 N :   -0.276373
   2 C :    0.215472
   3 C :   -0.292836
   4 N :    0.050417
   5 C :    0.165912
   6 O :   -0.220924
   7 H :    0.038612
   8 H :    0.058725
   9 H :    0.043682
  10 H :    0.061883
  11 H :    0.072356
  12 H :   -0.004126
Sum of atomic charges:   -0.0000000

LOEWDIN ATOMIC CHARGES
----------------------
   0 C :    0.021520
   1 N :   -0.028109
   2 C :    0.016292
   3 C :   -0.053807
   4 N :   -0.050389
   5 C :    0.057884
   6 O :   -0.167995
   7 H :    0.027713
   8 H :    0.033114
   9 H :    0.034847
  10 H :    0.053381
  11 H :    0.061141
  12 H :   -0.005591

  Mayer bond orders larger than 0.1
B(  0-C ,  1-N ) :   0.9929 B(  0-C ,  7-H ) :   0.9609 B(  0-C ,  8-H ) :   0.9581
B(  0-C ,  9-H ) :   0.9583 B(  1-N ,  2-C ) :   1.0092 B(  1-N ,  5-C ) :   1.1604
B(  1-N ,  6-O ) :   0.1020 B(  2-C ,  3-C ) :   1.0910 B(  2-C , 10-H ) :   0.9078
B(  2-C , 11-H ) :   0.8672 B(  3-C ,  4-N ) :   3.0543 B(  5-C ,  6-O ) :   2.0144
B(  5-C , 12-H ) :   0.9227

FINAL SINGLE POINT ENERGY      -340.089580701953

DIPOLE MOMENT
-------------
                                X             Y             Z
Electronic contribution:      4.47567       1.54314       0.13185
Nuclear contribution   :     -5.80675      -2.15346      -0.58129
                        -----------------------------------------
Total Dipole Moment    :     -1.33108      -0.61032      -0.44944
                        -----------------------------------------
Magnitude (a.u.)       :      1.53175
Magnitude (Debye)      :      3.89340

                             ****ORCA TERMINATED NORMALLY****
TOTAL RUN TIME: 0 days 0 hours 0 minutes 6 seconds 583 msec
