                         Program Version 3.0.3 - RELEASE   -
|  1> ! RI PBE def2-SVP def2-SVP/J NBO PAL2
|  2> % maxcore 2000
|  3> % output
|  4>     # printlevel mini
|  5>     print[ P_Basis ] 0
|  6>     print[ P_SCFInfo ] 1
|  7>     print[ P_SCFIterInfo ] 1
|  8>     print[ P_OrbEn ] 0
|  9>     print[ P_Cartesian ] 0
| 10> end
| 11> *xyz 0 1
| 12>  C        1.0408590000    -1.0232970000     1.0124830000
| 13>  N        1.5827080000     0.0856960000     0.2666840000
| 14>  C        2.6592110000     0.8680690000     0.8497170000
| 15>  C        2.1962020000     2.1990230000     1.4177350000
| 16>  N        1.1738520000     2.0079810000     2.4394840000
| 17>  C        1.2044500000     0.3336910000    -1.0057030000
| 18>  O        1.6613850000     1.2073140000    -1.7111730000
| 19>  H        1.7962660000    -1.8003540000     1.1735640000
| 20>  H        0.2112320000    -1.4623250000     0.4557570000
| 21>  H        0.6766560000    -0.6936840000     1.9875690000
| 22>  H        3.4062840000     1.0508010000     0.0731070000
| 23>  H        3.1100380000     0.2679010000     1.6435920000
| 24>  H        1.8774370000     2.8420840000     0.5875450000
| 25>  H        3.0631290000     2.6774980000     1.8827690000
| 26>  H        0.2827320000     1.8082870000     2.0008690000
| 27>  H        1.0428290000     2.8602080000     2.9689900000
| 28>  H        0.4112410000    -0.3563920000    -1.3521180000
| 29> *
| 30>
| 31>                          ****END OF INPUT****
 Total Charge           Charge          ....    0
 Multiplicity           Mult            ....    1
 Number of Electrons    NEL             ....   56
 Basis Dimension        Dim             ....  148

MULLIKEN ATOMIC CHARGES
-----------------------
   0 C :    0.095100
   1 N :   -0.267255
   2 C :    0.122710
   3 C :    0.032086
   4 N :   -0.216855
   5 C :    0.144437
   6 O :   -0.242147
   7 H :    0.033830
   8 H :    0.027328
   9 H :    0.033436
  10 H :    0.027596
  11 H :    0.007850
  12 H :    0.024344
  13 H :    0.014988
  14 H :    0.093035
  15 H :    0.094855
  16 H :   -0.025337
Sum of atomic charges:   -0.0000000

LOEWDIN ATOMIC CHARGES
----------------------
   0 C :    0.017228
   1 N :   -0.029150
   2 C :    0.025127
   3 C :   -0.000854
   4 N :   -0.112574
   5 C :    0.040327
   6 O :   -0.193702
   7 H :    0.022749
   8 H :    0.027016
   9 H :    0.022510
  10 H :    0.030201
  11 H :    0.024296
  12 H :    0.011663
  13 H :    0.026305
  14 H :    0.050353
  15 H :    0.055941
  16 H :   -0.017437

  Mayer bond orders larger than 0.1
B(  0-C ,  1-N ) :   1.0047 B(  0-C ,  7-H ) :   0.9608 B(  0-C ,  8-H ) :   0.9564
B(  0-C ,  9-H ) :   0.9541 B(  1-N ,  2-C ) :   0.9769 B(  1-N ,  5-C ) :   1.1999
B(  1-N ,  6-O ) :   0.1006 B(  2-C ,  3-C ) :   1.0957 B(  2-C , 10-H ) :   0.9207
B(  2-C , 11-H ) :   0.9250 B(  3-C ,  4-N ) :   1.0969 B(  3-C , 12-H ) :   0.9299
B(  3-C , 13-H ) :   0.9356 B(  4-N , 14-H ) :   0.9622 B(  4-N , 15-H ) :   0.9670
B(  5-C ,  6-O ) :   1.9901 B(  5-C , 16-H ) :   0.9217

FINAL SINGLE POINT ENERGY      -342.496327040177

DIPOLE MOMENT
-------------
                                X             Y             Z
Electronic contribution:      0.06901       0.66944      -5.12782
Nuclear contribution   :     -0.39836      -0.99977       6.15897
                        -----------------------------------------
Total Dipole Moment    :     -0.32935      -0.33033       1.03114
                        -----------------------------------------
Magnitude (a.u.)       :      1.13174
Magnitude (Debye)      :      2.87666

                             ****ORCA TERMINATED NORMALLY****
TOTAL RUN TIME: 0 days 0 hours 0 minutes 8 seconds 47 msec
