                         Program Version 3.0.3 - RELEASE   -
|  1> ! RI PBE def2-SVP def2-SVP/J NBO PAL2
|  2> % maxcore 2000
|  3> % output
|  4>     # printlevel mini
|  5>     print[ P_Basis ] 0
|  6>     print[ P_SCFInfo ] 1
|  7>     print[ P_SCFIterInfo ] 1
|  8>     print[ P_OrbEn ] 0
|  9>     print[ P_Cartesian ] 0
| 10> end
| 11> *xyz 0 1
| 12>  C        3.0672490000     0.7919250000    -0.3156150000
| 13>  N        3.1275480000    -0.4521200000    -1.0559080000
| 14>  C        3.5267530000    -1.6049790000    -0.2531360000
| 15>  C        2.7713540000    -2.8460510000    -0.7193870000
| 16>  N        3.0592850000    -3.1182980000    -2.1279070000
| 17>  C        5.0406640000    -1.8215790000    -0.2763590000
| 18>  O        5.5371520000    -1.9346840000    -1.5896510000
| 19>  H        2.8624310000     1.6153900000    -1.0028690000
| 20>  H        3.9876100000     1.0369510000     0.2382470000
| 21>  H        2.2449500000     0.7548000000     0.4041490000
| 22>  H        3.8044080000    -0.3600140000    -1.8061350000
| 23>  H        3.2285770000    -1.4204320000     0.7858140000
| 24>  H        1.7003990000    -2.6977400000    -0.5265300000
| 25>  H        3.0994970000    -3.7081770000    -0.1302170000
| 26>  H        2.6209790000    -2.3993400000    -2.6937150000
| 27>  H        2.6651110000    -4.0052080000    -2.4132780000
| 28>  H        5.2923920000    -2.7088490000     0.3251200000
| 29>  H        5.5455900000    -0.9657730000     0.1830080000
| 30>  H        4.9364620000    -2.5548120000    -2.0435310000
| 31> *
| 32>
| 33>                          ****END OF INPUT****
 Total Charge           Charge          ....    0
 Multiplicity           Mult            ....    1
 Number of Electrons    NEL             ....   58
 Basis Dimension        Dim             ....  158

MULLIKEN ATOMIC CHARGES
-----------------------
   0 C :    0.065533
   1 N :   -0.239633
   2 C :   -0.123622
   3 C :    0.132474
   4 N :   -0.228328
   5 C :    0.238683
   6 O :   -0.299680
   7 H :    0.020361
   8 H :   -0.001033
   9 H :    0.021673
  10 H :    0.091884
  11 H :   -0.002678
  12 H :    0.002668
  13 H :    0.003504
  14 H :    0.101612
  15 H :    0.101199
  16 H :   -0.015297
  17 H :   -0.000144
  18 H :    0.130825
Sum of atomic charges:   -0.0000000

LOEWDIN ATOMIC CHARGES
----------------------
   0 C :   -0.004864
   1 N :   -0.101518
   2 C :   -0.025431
   3 C :    0.006180
   4 N :   -0.076146
   5 C :    0.049186
   6 O :   -0.135661
   7 H :    0.023324
   8 H :   -0.000934
   9 H :    0.019267
  10 H :    0.043014
  11 H :    0.024910
  12 H :    0.006440
  13 H :    0.018928
  14 H :    0.054905
  15 H :    0.058284
  16 H :    0.000833
  17 H :    0.014032
  18 H :    0.025249

  Mayer bond orders larger than 0.1
B(  0-C ,  1-N ) :   1.0656 B(  0-C ,  7-H ) :   0.9711 B(  0-C ,  8-H ) :   0.9420
B(  0-C ,  9-H ) :   0.9701 B(  1-N ,  2-C ) :   1.0483 B(  1-N , 10-H ) :   0.9251
B(  2-C ,  3-C ) :   1.0413 B(  2-C ,  5-C ) :   1.0404 B(  2-C , 11-H ) :   0.9006
B(  3-C ,  4-N ) :   1.0553 B(  3-C , 12-H ) :   0.9308 B(  3-C , 13-H ) :   0.9317
B(  4-N , 14-H ) :   0.9530 B(  4-N , 15-H ) :   0.9621 B(  4-N , 18-H ) :   0.1640
B(  5-C ,  6-O ) :   1.0638 B(  5-C , 16-H ) :   0.9219 B(  5-C , 17-H ) :   0.9293
B(  6-O , 18-H ) :   0.9279

FINAL SINGLE POINT ENERGY      -343.669703390999

DIPOLE MOMENT
-------------
                                X             Y             Z
Electronic contribution:      1.96887      -1.73256      -2.23909
Nuclear contribution   :     -2.80936       1.42017       2.38626
                        -----------------------------------------
Total Dipole Moment    :     -0.84050      -0.31240       0.14717
                        -----------------------------------------
Magnitude (a.u.)       :      0.90867
Magnitude (Debye)      :      2.30966

                             ****ORCA TERMINATED NORMALLY****
TOTAL RUN TIME: 0 days 0 hours 0 minutes 8 seconds 426 msec
