                         Program Version 3.0.3 - RELEASE   -
|  1> ! RI PBE def2-SVP def2-SVP/J NBO PAL2
|  2> % maxcore 2000
|  3> % output
|  4>     # printlevel mini
|  5>     print[ P_Basis ] 0
|  6>     print[ P_SCFInfo ] 1
|  7>     print[ P_SCFIterInfo ] 1
|  8>     print[ P_OrbEn ] 0
|  9>     print[ P_Cartesian ] 0
| 10> end
| 11> *xyz 0 1
| 12>  C        1.1033590000     0.3552190000     0.2956940000
| 13>  N        2.5106960000     0.0408740000     0.1646900000
| 14>  C        2.8450450000    -0.5183520000    -1.1285420000
| 15>  C        4.3422950000    -0.7257080000    -1.2693710000
| 16>  N        4.8938040000    -1.6187830000    -0.2709430000
| 17>  C        4.9688970000    -2.9556370000    -0.4476360000
| 18>  O        4.5595640000    -3.5520290000    -1.4168980000
| 19>  H        0.8951170000     0.7014360000     1.3099160000
| 20>  H        0.4338340000    -0.4921590000     0.0750490000
| 21>  H        0.8443300000     1.1670890000    -0.3894500000
| 22>  H        2.7677550000    -0.6277780000     0.8810450000
| 23>  H        2.5278400000     0.1906820000    -1.9010730000
| 24>  H        2.3259820000    -1.4688470000    -1.3349160000
| 25>  H        4.8529950000     0.2352980000    -1.1792460000
| 26>  H        4.5602760000    -1.1491560000    -2.2518230000
| 27>  H        5.2995170000    -1.2298860000     0.5624380000
| 28>  H        5.4572710000    -3.4655650000     0.4049580000
| 29> *
| 30>
| 31>                          ****END OF INPUT****
 Total Charge           Charge          ....    0
 Multiplicity           Mult            ....    1
 Number of Electrons    NEL             ....   56
 Basis Dimension        Dim             ....  148

MULLIKEN ATOMIC CHARGES
-----------------------
   0 C :    0.074101
   1 N :   -0.289080
   2 C :    0.087721
   3 C :    0.110338
   4 N :   -0.152003
   5 C :    0.125992
   6 O :   -0.236076
   7 H :    0.019257
   8 H :   -0.002379
   9 H :    0.020372
  10 H :    0.089469
  11 H :    0.010581
  12 H :    0.006235
  13 H :    0.014061
  14 H :    0.027955
  15 H :    0.116693
  16 H :   -0.023236
Sum of atomic charges:   -0.0000000

LOEWDIN ATOMIC CHARGES
----------------------
   0 C :   -0.005123
   1 N :   -0.112944
   2 C :    0.004200
   3 C :    0.020731
   4 N :   -0.000331
   5 C :    0.044889
   6 O :   -0.187288
   7 H :    0.022313
   8 H :    0.000699
   9 H :    0.021243
  10 H :    0.044900
  11 H :    0.025216
  12 H :    0.006583
  13 H :    0.026323
  14 H :    0.032543
  15 H :    0.072895
  16 H :   -0.016849

  Mayer bond orders larger than 0.1
B(  0-C ,  1-N ) :   1.0615 B(  0-C ,  7-H ) :   0.9725 B(  0-C ,  8-H ) :   0.9450
B(  0-C ,  9-H ) :   0.9705 B(  1-N ,  2-C ) :   1.0328 B(  1-N , 10-H ) :   0.9438
B(  2-C ,  3-C ) :   1.0851 B(  2-C , 11-H ) :   0.9302 B(  2-C , 12-H ) :   0.9136
B(  3-C ,  4-N ) :   1.0045 B(  3-C , 13-H ) :   0.9336 B(  3-C , 14-H ) :   0.9234
B(  4-N ,  5-C ) :   1.2214 B(  4-N , 15-H ) :   0.9276 B(  5-C ,  6-O ) :   2.0111
B(  5-C , 16-H ) :   0.9228

FINAL SINGLE POINT ENERGY      -342.495112623737

DIPOLE MOMENT
-------------
                                X             Y             Z
Electronic contribution:      5.61022      -5.43978      -0.95873
Nuclear contribution   :     -5.50258       6.27263       1.79263
                        -----------------------------------------
Total Dipole Moment    :      0.10764       0.83284       0.83390
                        -----------------------------------------
Magnitude (a.u.)       :      1.18347
Magnitude (Debye)      :      3.00815

                             ****ORCA TERMINATED NORMALLY****
TOTAL RUN TIME: 0 days 0 hours 0 minutes 7 seconds 818 msec
