                         Program Version 3.0.3 - RELEASE   -
|  1> ! RI PBE def2-SVP def2-SVP/J NBO PAL2
|  2> % maxcore 2000
|  3> % output
|  4>     # printlevel mini
|  5>     print[ P_Basis ] 0
|  6>     print[ P_SCFInfo ] 1
|  7>     print[ P_SCFIterInfo ] 1
|  8>     print[ P_OrbEn ] 0
|  9>     print[ P_Cartesian ] 0
| 10> end
| 11> *xyz 0 1
| 12>  C        2.5874810000     0.3549140000     1.1005060000
| 13>  N        1.8820620000    -0.2895450000     0.0298870000
| 14>  C        2.4846200000    -1.1825300000    -0.8005420000
| 15>  C        1.6512180000    -1.7907760000    -1.8802560000
| 16>  N        3.7262200000    -1.4471160000    -0.6069940000
| 17>  O        4.1786340000    -2.3798840000    -1.5473590000
| 18>  C        5.5353160000    -2.6350570000    -1.2943840000
| 19>  H        1.9045330000     1.0226040000     1.6253690000
| 20>  H        3.4351180000     0.9354710000     0.7226350000
| 21>  H        2.9860130000    -0.3780390000     1.8092170000
| 22>  H        0.9149170000    -0.0852100000    -0.1228720000
| 23>  H        0.6264130000    -1.4180660000    -1.8531000000
| 24>  H        1.6395670000    -2.8770030000    -1.7766420000
| 25>  H        2.0858690000    -1.5711340000    -2.8567800000
| 26>  H        5.8513570000    -3.3626410000    -2.0434890000
| 27>  H        5.6809930000    -3.0518700000    -0.2919100000
| 28>  H        6.1355480000    -1.7237580000    -1.3900880000
| 29> *
| 30>
| 31>                          ****END OF INPUT****
 Total Charge           Charge          ....    0
 Multiplicity           Mult            ....    1
 Number of Electrons    NEL             ....   56
 Basis Dimension        Dim             ....  148

MULLIKEN ATOMIC CHARGES
-----------------------
   0 C :    0.098968
   1 N :   -0.151199
   2 C :   -0.126625
   3 C :    0.095252
   4 N :   -0.087369
   5 O :   -0.302982
   6 C :    0.175729
   7 H :    0.016292
   8 H :    0.027841
   9 H :    0.026417
  10 H :    0.107850
  11 H :   -0.006409
  12 H :    0.050212
  13 H :    0.045365
  14 H :    0.020407
  15 H :    0.003901
  16 H :    0.006351
Sum of atomic charges:   -0.0000000

LOEWDIN ATOMIC CHARGES
----------------------
   0 C :    0.007438
   1 N :   -0.008171
   2 C :   -0.035081
   3 C :   -0.073491
   4 N :   -0.100314
   5 O :   -0.109383
   6 C :    0.037243
   7 H :    0.024310
   8 H :    0.022655
   9 H :    0.022713
  10 H :    0.069373
  11 H :    0.024381
  12 H :    0.046474
  13 H :    0.045676
  14 H :    0.017910
  15 H :    0.003841
  16 H :    0.004426

  Mayer bond orders larger than 0.1
B(  0-C ,  1-N ) :   1.0368 B(  0-C ,  7-H ) :   0.9674 B(  0-C ,  8-H ) :   0.9602
B(  0-C ,  9-H ) :   0.9594 B(  1-N ,  2-C ) :   1.2280 B(  1-N , 10-H ) :   0.9336
B(  2-C ,  3-C ) :   1.0761 B(  2-C ,  4-N ) :   1.7438 B(  3-C , 11-H ) :   0.9349
B(  3-C , 12-H ) :   0.9361 B(  3-C , 13-H ) :   0.9353 B(  4-N ,  5-O ) :   0.9346
B(  5-O ,  6-C ) :   0.9964 B(  6-C , 14-H ) :   0.9728 B(  6-C , 15-H ) :   0.9622
B(  6-C , 16-H ) :   0.9622

FINAL SINGLE POINT ENERGY      -342.433976395538

DIPOLE MOMENT
-------------
                                X             Y             Z
Electronic contribution:     -0.32497      -0.59981      -0.86356
Nuclear contribution   :     -0.43695       0.93994       0.95680
                        -----------------------------------------
Total Dipole Moment    :     -0.76192       0.34012       0.09324
                        -----------------------------------------
Magnitude (a.u.)       :      0.83958
Magnitude (Debye)      :      2.13404

                             ****ORCA TERMINATED NORMALLY****
TOTAL RUN TIME: 0 days 0 hours 0 minutes 7 seconds 390 msec
