                         Program Version 3.0.3 - RELEASE   -
|  1> ! RI PBE def2-SVP def2-SVP/J NBO PAL2
|  2> % maxcore 2000
|  3> % output
|  4>     # printlevel mini
|  5>     print[ P_Basis ] 0
|  6>     print[ P_SCFInfo ] 1
|  7>     print[ P_SCFIterInfo ] 1
|  8>     print[ P_OrbEn ] 0
|  9>     print[ P_Cartesian ] 0
| 10> end
| 11> *xyz 0 1
| 12>  C        1.3850150000    -0.5068210000    -0.3412460000
| 13>  N        2.7873660000    -0.2574010000    -0.0886250000
| 14>  C        3.0210970000     0.9611500000     0.6602640000
| 15>  C        4.4686720000     1.1085320000     0.9745470000
| 16>  N        5.0924410000     2.1381820000     0.5797180000
| 17>  O        6.4151030000     2.1185720000     0.9584290000
| 18>  C        7.0564960000     3.2811150000     0.4809420000
| 19>  H        1.2759530000    -1.4036640000    -0.9537420000
| 20>  H        0.8647040000     0.3229110000    -0.8474380000
| 21>  H        0.8706060000    -0.6900680000     0.6062860000
| 22>  H        3.2953390000    -0.2122580000    -0.9633390000
| 23>  H        2.4633290000     0.8804390000     1.6024220000
| 24>  H        2.6704980000     1.8748140000     0.1550110000
| 25>  H        4.9759250000     0.3156260000     1.5266740000
| 26>  H        8.0908980000     3.2086580000     0.8166420000
| 27>  H        6.5962160000     4.1825870000     0.8950800000
| 28>  H        7.0258510000     3.3278350000    -0.6114140000
| 29> *
| 30>
| 31>                          ****END OF INPUT****
 Total Charge           Charge          ....    0
 Multiplicity           Mult            ....    1
 Number of Electrons    NEL             ....   56
 Basis Dimension        Dim             ....  148

MULLIKEN ATOMIC CHARGES
-----------------------
   0 C :    0.064379
   1 N :   -0.286858
   2 C :    0.181235
   3 C :   -0.079351
   4 N :    0.001164
   5 O :   -0.277337
   6 C :    0.159705
   7 H :    0.025449
   8 H :   -0.002523
   9 H :    0.019948
  10 H :    0.104231
  11 H :    0.016831
  12 H :   -0.006228
  13 H :    0.008157
  14 H :    0.031465
  15 H :    0.017256
  16 H :    0.022475
Sum of atomic charges:   -0.0000000

LOEWDIN ATOMIC CHARGES
----------------------
   0 C :   -0.007347
   1 N :   -0.105451
   2 C :    0.004082
   3 C :   -0.034819
   4 N :   -0.003065
   5 O :   -0.089253
   6 C :    0.041721
   7 H :    0.024255
   8 H :   -0.000709
   9 H :    0.022177
  10 H :    0.055872
  11 H :    0.031724
  12 H :    0.006280
  13 H :    0.007863
  14 H :    0.023846
  15 H :    0.011322
  16 H :    0.011502

  Mayer bond orders larger than 0.1
B(  0-C ,  1-N ) :   1.0650 B(  0-C ,  7-H ) :   0.9727 B(  0-C ,  8-H ) :   0.9452
B(  0-C ,  9-H ) :   0.9681 B(  1-N ,  2-C ) :   1.0157 B(  1-N , 10-H ) :   0.9478
B(  2-C ,  3-C ) :   1.0389 B(  2-C , 11-H ) :   0.9109 B(  2-C , 12-H ) :   0.9083
B(  3-C ,  4-N ) :   1.8871 B(  3-C ,  5-O ) :   0.1104 B(  3-C , 13-H ) :   0.9435
B(  4-N ,  5-O ) :   0.9557 B(  5-O ,  6-C ) :   0.9757 B(  6-C , 14-H ) :   0.9735
B(  6-C , 15-H ) :   0.9665 B(  6-C , 16-H ) :   0.9682

FINAL SINGLE POINT ENERGY      -342.410109177175

DIPOLE MOMENT
-------------
                                X             Y             Z
Electronic contribution:      4.77689       1.00774       1.86709
Nuclear contribution   :     -4.87416      -0.88494      -2.11034
                        -----------------------------------------
Total Dipole Moment    :     -0.09726       0.12280      -0.24326
                        -----------------------------------------
Magnitude (a.u.)       :      0.28934
Magnitude (Debye)      :      0.73544

                             ****ORCA TERMINATED NORMALLY****
TOTAL RUN TIME: 0 days 0 hours 0 minutes 7 seconds 492 msec
