                         Program Version 3.0.3 - RELEASE   -
|  1> ! RI PBE def2-SVP def2-SVP/J NBO PAL2
|  2> % maxcore 2000
|  3> % output
|  4>     # printlevel mini
|  5>     print[ P_Basis ] 0
|  6>     print[ P_SCFInfo ] 1
|  7>     print[ P_SCFIterInfo ] 1
|  8>     print[ P_OrbEn ] 0
|  9>     print[ P_Cartesian ] 0
| 10> end
| 11> *xyz 0 1
| 12>  C        1.0410880000    -0.0205880000     0.6519390000
| 13>  N        2.2584060000    -0.4022660000    -0.0155710000
| 14>  C        2.8267490000    -1.6436890000     0.4520440000
| 15>  C        2.9023150000     0.2744630000    -1.0126680000
| 16>  O        3.9351210000    -0.1504020000    -1.5049920000
| 17>  C        2.3141630000     1.5577460000    -1.4954100000
| 18>  C        2.9250820000     2.2288710000    -2.4628410000
| 19>  H        0.2755460000    -0.7934900000     0.5190490000
| 20>  H        0.6418890000     0.9149830000     0.2767590000
| 21>  H        1.2162060000     0.0926200000     1.7278620000
| 22>  H        2.1176630000    -2.4661090000     0.3082070000
| 23>  H        3.0606820000    -1.5778700000     1.5201310000
| 24>  H        3.7359400000    -1.8454340000    -0.1075570000
| 25>  H        1.3999430000     1.9503210000    -1.0714810000
| 26>  H        3.8419110000     1.8410370000    -2.8922610000
| 27>  H        2.5280970000     3.1640170000    -2.8392110000
| 28> *
| 29>
| 30>                          ****END OF INPUT****
 Total Charge           Charge          ....    0
 Multiplicity           Mult            ....    1
 Number of Electrons    NEL             ....   54
 Basis Dimension        Dim             ....  143

MULLIKEN ATOMIC CHARGES
-----------------------
   0 C :    0.096187
   1 N :   -0.281564
   2 C :    0.083850
   3 C :    0.145615
   4 O :   -0.227842
   5 C :   -0.103121
   6 C :    0.024611
   7 H :    0.032305
   8 H :    0.033094
   9 H :    0.032576
  10 H :    0.026385
  11 H :    0.026456
  12 H :    0.055613
  13 H :   -0.010937
  14 H :    0.043507
  15 H :    0.023266
Sum of atomic charges:   -0.0000000

LOEWDIN ATOMIC CHARGES
----------------------
   0 C :    0.018754
   1 N :   -0.028965
   2 C :    0.016145
   3 C :    0.028301
   4 O :   -0.199294
   5 C :   -0.077082
   6 C :    0.006316
   7 H :    0.024526
   8 H :    0.027740
   9 H :    0.024833
  10 H :    0.022132
  11 H :    0.022658
  12 H :    0.033813
  13 H :    0.020597
  14 H :    0.032757
  15 H :    0.026769

  Mayer bond orders larger than 0.1
B(  0-C ,  1-N ) :   1.0119 B(  0-C ,  7-H ) :   0.9584 B(  0-C ,  8-H ) :   0.9594
B(  0-C ,  9-H ) :   0.9578 B(  1-N ,  2-C ) :   0.9948 B(  1-N ,  3-C ) :   1.1492
B(  1-N ,  4-O ) :   0.1014 B(  2-C , 10-H ) :   0.9643 B(  2-C , 11-H ) :   0.9638
B(  2-C , 12-H ) :   0.9453 B(  3-C ,  4-O ) :   2.0212 B(  3-C ,  5-C ) :   0.9609
B(  5-C ,  6-C ) :   1.9951 B(  5-C , 13-H ) :   0.9398 B(  6-C , 14-H ) :   0.9304
B(  6-C , 15-H ) :   0.9362

FINAL SINGLE POINT ENERGY      -325.260970636141

DIPOLE MOMENT
-------------
                                X             Y             Z
Electronic contribution:      3.18903       0.84392      -3.09273
Nuclear contribution   :     -4.28601      -0.68504       3.83743
                        -----------------------------------------
Total Dipole Moment    :     -1.09698       0.15887       0.74470
                        -----------------------------------------
Magnitude (a.u.)       :      1.33536
Magnitude (Debye)      :      3.39422

                             ****ORCA TERMINATED NORMALLY****
TOTAL RUN TIME: 0 days 0 hours 0 minutes 7 seconds 810 msec
