                         Program Version 3.0.3 - RELEASE   -
|  1> ! RI PBE def2-SVP def2-SVP/J NBO PAL2
|  2> % maxcore 2000
|  3> % output
|  4>     # printlevel mini
|  5>     print[ P_Basis ] 0
|  6>     print[ P_SCFInfo ] 1
|  7>     print[ P_SCFIterInfo ] 1
|  8>     print[ P_OrbEn ] 0
|  9>     print[ P_Cartesian ] 0
| 10> end
| 11> *xyz 0 1
| 12>  C        1.0069550000    -0.0901470000    -0.0217840000
| 13>  N        2.4548700000    -0.0592370000     0.0076520000
| 14>  C        3.2427020000    -0.9123370000    -0.8570430000
| 15>  C        3.1455830000     0.7586980000     0.8349820000
| 16>  O        4.3622920000     0.7976510000     0.8729290000
| 17>  C        2.3388910000     1.6101290000     1.6980570000
| 18>  C        1.7362420000     2.3395230000     2.4372280000
| 19>  H        0.6900180000    -0.8218990000    -0.7625300000
| 20>  H        0.5874740000     0.8800650000    -0.2991330000
| 21>  H        0.5890720000    -0.3803970000     0.9453410000
| 22>  H        2.5737280000    -1.5157100000    -1.4674530000
| 23>  H        3.8888060000    -1.5700920000    -0.2706860000
| 24>  H        3.8876120000    -0.3170800000    -1.5079340000
| 25>  H        1.2126730000     2.9910140000     3.0973740000
| 26> *
| 27>
| 28>                          ****END OF INPUT****
 Total Charge           Charge          ....    0
 Multiplicity           Mult            ....    1
 Number of Electrons    NEL             ....   52
 Basis Dimension        Dim             ....  133

MULLIKEN ATOMIC CHARGES
-----------------------
   0 C :    0.107545
   1 N :   -0.293858
   2 C :    0.113471
   3 C :    0.131247
   4 O :   -0.210001
   5 C :    0.347490
   6 C :   -0.439130
   7 H :    0.032621
   8 H :    0.045169
   9 H :    0.045171
  10 H :    0.022059
  11 H :    0.043061
  12 H :    0.043155
  13 H :    0.012001
Sum of atomic charges:   -0.0000000

LOEWDIN ATOMIC CHARGES
----------------------
   0 C :    0.019679
   1 N :   -0.024882
   2 C :    0.021936
   3 C :    0.007318
   4 O :   -0.169093
   5 C :   -0.037988
   6 C :   -0.038547
   7 H :    0.031391
   8 H :    0.030850
   9 H :    0.030854
  10 H :    0.025222
  11 H :    0.031884
  12 H :    0.031924
  13 H :    0.039453

  Mayer bond orders larger than 0.1
B(  0-C ,  1-N ) :   1.0001 B(  0-C ,  7-H ) :   0.9628 B(  0-C ,  8-H ) :   0.9615
B(  0-C ,  9-H ) :   0.9614 B(  1-N ,  2-C ) :   0.9811 B(  1-N ,  3-C ) :   1.1949
B(  1-N ,  4-O ) :   0.1040 B(  2-C , 10-H ) :   0.9632 B(  2-C , 11-H ) :   0.9642
B(  2-C , 12-H ) :   0.9641 B(  3-C ,  4-O ) :   2.0217 B(  3-C ,  5-C ) :   0.8551
B(  5-C ,  6-C ) :   2.3348 B(  5-C , 13-H ) :  -0.1017 B(  6-C , 13-H ) :   1.0907

FINAL SINGLE POINT ENERGY      -324.010816559268

DIPOLE MOMENT
-------------
                                X             Y             Z
Electronic contribution:      3.27621       4.00605       4.05201
Nuclear contribution   :     -4.65262      -4.45563      -4.50552
                        -----------------------------------------
Total Dipole Moment    :     -1.37640      -0.44958      -0.45352
                        -----------------------------------------
Magnitude (a.u.)       :      1.51733
Magnitude (Debye)      :      3.85674

                             ****ORCA TERMINATED NORMALLY****
TOTAL RUN TIME: 0 days 0 hours 0 minutes 6 seconds 392 msec
