                         Program Version 3.0.3 - RELEASE   -
|  1> ! RI PBE def2-SVP def2-SVP/J NBO PAL2
|  2> % maxcore 2000
|  3> % output
|  4>     # printlevel mini
|  5>     print[ P_Basis ] 0
|  6>     print[ P_SCFInfo ] 1
|  7>     print[ P_SCFIterInfo ] 1
|  8>     print[ P_OrbEn ] 0
|  9>     print[ P_Cartesian ] 0
| 10> end
| 11> *xyz 0 1
| 12>  C        1.0742690000     0.1379190000    -0.0294030000
| 13>  N        2.4718670000    -0.1735640000    -0.2507810000
| 14>  C        2.9936770000    -1.1668890000     0.6691380000
| 15>  C        2.5949250000    -2.5487660000     0.1380250000
| 16>  O        1.9736140000    -3.3539780000     0.7657870000
| 17>  C        4.4454430000    -1.1161020000     0.7345850000
| 18>  C        5.6447590000    -1.1001510000     0.7711630000
| 19>  H        0.7581020000     0.8969140000    -0.7460530000
| 20>  H        0.8564220000     0.5009520000     0.9867560000
| 21>  H        0.4623430000    -0.7509650000    -0.2015300000
| 22>  H        3.0454500000     0.6576190000    -0.2235030000
| 23>  H        2.5820890000    -1.0792010000     1.6879570000
| 24>  H        2.9169010000    -2.7212930000    -0.9090300000
| 25>  H        6.7084880000    -1.0812940000     0.8127590000
| 26> *
| 27>
| 28>                          ****END OF INPUT****
 Total Charge           Charge          ....    0
 Multiplicity           Mult            ....    1
 Number of Electrons    NEL             ....   52
 Basis Dimension        Dim             ....  133

MULLIKEN ATOMIC CHARGES
-----------------------
   0 C :    0.063870
   1 N :   -0.240240
   2 C :    0.073110
   3 C :    0.130967
   4 O :   -0.141199
   5 C :    0.379610
   6 C :   -0.481553
   7 H :    0.034846
   8 H :    0.008214
   9 H :    0.032801
  10 H :    0.113413
  11 H :    0.019743
  12 H :   -0.001661
  13 H :    0.008077
Sum of atomic charges:   -0.0000000

LOEWDIN ATOMIC CHARGES
----------------------
   0 C :   -0.002882
   1 N :   -0.082760
   2 C :   -0.035657
   3 C :    0.100697
   4 O :   -0.089483
   5 C :   -0.021940
   6 C :   -0.055696
   7 H :    0.029079
   8 H :    0.005749
   9 H :    0.026225
  10 H :    0.062813
  11 H :    0.029032
  12 H :   -0.004618
  13 H :    0.039442

  Mayer bond orders larger than 0.1
B(  0-C ,  1-N ) :   1.0495 B(  0-C ,  7-H ) :   0.9719 B(  0-C ,  8-H ) :   0.9500
B(  0-C ,  9-H ) :   0.9658 B(  1-N ,  2-C ) :   1.0467 B(  1-N , 10-H ) :   0.9342
B(  2-C ,  3-C ) :   0.8842 B(  2-C ,  5-C ) :   0.9600 B(  2-C , 11-H ) :   0.8669
B(  3-C ,  4-O ) :   2.1929 B(  3-C , 12-H ) :   0.9144 B(  5-C ,  6-C ) :   2.3320
B(  5-C , 13-H ) :  -0.1159 B(  6-C , 13-H ) :   1.1065

FINAL SINGLE POINT ENERGY      -323.974178299280

DIPOLE MOMENT
-------------
                                X             Y             Z
Electronic contribution:      3.32545      -4.38726       1.09980
Nuclear contribution   :     -3.02306       5.36311      -1.21913
                        -----------------------------------------
Total Dipole Moment    :      0.30239       0.97585      -0.11932
                        -----------------------------------------
Magnitude (a.u.)       :      1.02857
Magnitude (Debye)      :      2.61442

                             ****ORCA TERMINATED NORMALLY****
TOTAL RUN TIME: 0 days 0 hours 0 minutes 6 seconds 965 msec
