                         Program Version 3.0.3 - RELEASE   -
|  1> ! RI PBE def2-SVP def2-SVP/J NBO PAL2
|  2> % maxcore 2000
|  3> % output
|  4>     # printlevel mini
|  5>     print[ P_Basis ] 0
|  6>     print[ P_SCFInfo ] 1
|  7>     print[ P_SCFIterInfo ] 1
|  8>     print[ P_OrbEn ] 0
|  9>     print[ P_Cartesian ] 0
| 10> end
| 11> *xyz 0 1
| 12>  C        1.2748600000     0.3031450000    -0.1793670000
| 13>  N        2.6506110000     0.3710830000    -0.6322250000
| 14>  C        3.1849320000    -0.8912240000    -1.1400190000
| 15>  C        2.6368570000    -1.0959610000    -2.5577050000
| 16>  O        2.8361610000     0.0528890000    -3.3374860000
| 17>  C        4.6798220000    -0.8257750000    -1.1525040000
| 18>  C        5.4643090000    -1.5865840000    -0.4028780000
| 19>  H        0.9896670000     1.2617310000     0.2571320000
| 20>  H        1.0979220000    -0.4860700000     0.5676800000
| 21>  H        0.6064230000     0.1183100000    -1.0230450000
| 22>  H        3.2464900000     0.7106050000     0.1105670000
| 23>  H        2.8717460000    -1.7463240000    -0.5173660000
| 24>  H        1.5692850000    -1.3569210000    -2.5035980000
| 25>  H        3.1541900000    -1.9315630000    -3.0357020000
| 26>  H        2.7303910000     0.7896120000    -2.7156290000
| 27>  H        5.1128270000    -0.1013420000    -1.8382770000
| 28>  H        5.0545680000    -2.3205480000     0.2848840000
| 29>  H        6.5445190000    -1.5116560000    -0.4538520000
| 30> *
| 31>
| 32>                          ****END OF INPUT****
 Total Charge           Charge          ....    0
 Multiplicity           Mult            ....    1
 Number of Electrons    NEL             ....   56
 Basis Dimension        Dim             ....  153

MULLIKEN ATOMIC CHARGES
-----------------------
   0 C :    0.061631
   1 N :   -0.256505
   2 C :   -0.041651
   3 C :    0.230837
   4 O :   -0.285222
   5 C :   -0.031619
   6 C :   -0.039864
   7 H :    0.028273
   8 H :    0.008151
   9 H :    0.030978
  10 H :    0.111632
  11 H :   -0.015335
  12 H :   -0.008342
  13 H :    0.006887
  14 H :    0.139792
  15 H :    0.005883
  16 H :    0.021023
  17 H :    0.033449
Sum of atomic charges:    0.0000000

LOEWDIN ATOMIC CHARGES
----------------------
   0 C :   -0.005052
   1 N :   -0.088737
   2 C :   -0.015949
   3 C :    0.056922
   4 O :   -0.125654
   5 C :   -0.026214
   6 C :   -0.059032
   7 H :    0.026940
   8 H :    0.005777
   9 H :    0.023626
  10 H :    0.059074
  11 H :    0.008999
  12 H :   -0.000585
  13 H :    0.019803
  14 H :    0.043935
  15 H :    0.027095
  16 H :    0.021729
  17 H :    0.027323

  Mayer bond orders larger than 0.1
B(  0-C ,  1-N ) :   1.0454 B(  0-C ,  7-H ) :   0.9706 B(  0-C ,  8-H ) :   0.9492
B(  0-C ,  9-H ) :   0.9671 B(  1-N ,  2-C ) :   1.0262 B(  1-N , 10-H ) :   0.9417
B(  1-N , 14-H ) :   0.1073 B(  2-C ,  3-C ) :   1.0229 B(  2-C ,  5-C ) :   1.0207
B(  2-C , 11-H ) :   0.8981 B(  3-C ,  4-O ) :   1.0904 B(  3-C , 12-H ) :   0.9129
B(  3-C , 13-H ) :   0.9375 B(  4-O , 14-H ) :   0.9480 B(  5-C ,  6-C ) :   1.9902
B(  5-C , 15-H ) :   0.9517 B(  6-C , 16-H ) :   0.9491 B(  6-C , 17-H ) :   0.9442

FINAL SINGLE POINT ENERGY      -326.424769998853

DIPOLE MOMENT
-------------
                                X             Y             Z
Electronic contribution:      1.85866       1.03369      -2.87711
Nuclear contribution   :     -2.00580      -1.07553       3.90581
                        -----------------------------------------
Total Dipole Moment    :     -0.14713      -0.04183       1.02870
                        -----------------------------------------
Magnitude (a.u.)       :      1.04001
Magnitude (Debye)      :      2.64350

                             ****ORCA TERMINATED NORMALLY****
TOTAL RUN TIME: 0 days 0 hours 0 minutes 7 seconds 927 msec
