                         Program Version 3.0.3 - RELEASE   -
|  1> ! RI PBE def2-SVP def2-SVP/J NBO PAL2
|  2> % maxcore 2000
|  3> % output
|  4>     # printlevel mini
|  5>     print[ P_Basis ] 0
|  6>     print[ P_SCFInfo ] 1
|  7>     print[ P_SCFIterInfo ] 1
|  8>     print[ P_OrbEn ] 0
|  9>     print[ P_Cartesian ] 0
| 10> end
| 11> *xyz 0 1
| 12>  C        1.0623610000    -0.1825780000    -0.0426350000
| 13>  N        2.4213530000     0.2236330000     0.2552870000
| 14>  C        2.9351670000     1.2755470000    -0.6210390000
| 15>  C        2.4566170000     2.6329820000    -0.0827960000
| 16>  O        2.7431580000     2.7612730000     1.2778270000
| 17>  C        4.3897900000     1.2034080000    -0.6786780000
| 18>  C        5.5862190000     1.1330380000    -0.7352700000
| 19>  H        0.7796300000    -1.0038270000     0.6174280000
| 20>  H        0.9194660000    -0.5072180000    -1.0847780000
| 21>  H        0.3710700000     0.6409290000     0.1486770000
| 22>  H        3.0453470000    -0.5705050000     0.2325180000
| 23>  H        2.5520660000     1.1652620000    -1.6504740000
| 24>  H        1.3761980000     2.7186750000    -0.2751290000
| 25>  H        2.9555520000     3.4400360000    -0.6234340000
| 26>  H        2.6363710000     1.8688190000     1.6403870000
| 27>  H        6.6484550000     1.0822960000    -0.7803390000
| 28> *
| 29>
| 30>                          ****END OF INPUT****
 Total Charge           Charge          ....    0
 Multiplicity           Mult            ....    1
 Number of Electrons    NEL             ....   54
 Basis Dimension        Dim             ....  143

MULLIKEN ATOMIC CHARGES
-----------------------
   0 C :    0.067773
   1 N :   -0.251204
   2 C :   -0.048392
   3 C :    0.238645
   4 O :   -0.276021
   5 C :    0.419407
   6 C :   -0.505037
   7 H :    0.032735
   8 H :    0.008450
   9 H :    0.030097
  10 H :    0.118203
  11 H :    0.016453
  12 H :   -0.009433
  13 H :    0.015636
  14 H :    0.141626
  15 H :    0.001063
Sum of atomic charges:    0.0000000

LOEWDIN ATOMIC CHARGES
----------------------
   0 C :   -0.003258
   1 N :   -0.082333
   2 C :   -0.022576
   3 C :    0.062731
   4 O :   -0.118285
   5 C :   -0.021960
   6 C :   -0.072615
   7 H :    0.028868
   8 H :    0.006880
   9 H :    0.024386
  10 H :    0.063867
  11 H :    0.027830
  12 H :   -0.000795
  13 H :    0.023293
  14 H :    0.047855
  15 H :    0.036113

  Mayer bond orders larger than 0.1
B(  0-C ,  1-N ) :   1.0430 B(  0-C ,  7-H ) :   0.9706 B(  0-C ,  8-H ) :   0.9496
B(  0-C ,  9-H ) :   0.9673 B(  1-N ,  2-C ) :   1.0482 B(  1-N , 10-H ) :   0.9389
B(  2-C ,  3-C ) :   1.0288 B(  2-C ,  5-C ) :   0.9704 B(  2-C , 11-H ) :   0.8672
B(  3-C ,  4-O ) :   1.1049 B(  3-C , 12-H ) :   0.9113 B(  3-C , 13-H ) :   0.9345
B(  4-O , 14-H ) :   0.9500 B(  5-C ,  6-C ) :   2.3101 B(  5-C , 15-H ) :  -0.1174
B(  6-C , 15-H ) :   1.1081

FINAL SINGLE POINT ENERGY      -325.178024791177

DIPOLE MOMENT
-------------
                                X             Y             Z
Electronic contribution:      5.00913       1.79590       0.80356
Nuclear contribution   :     -5.30130      -2.68616      -1.32762
                        -----------------------------------------
Total Dipole Moment    :     -0.29217      -0.89026      -0.52406
                        -----------------------------------------
Magnitude (a.u.)       :      1.07357
Magnitude (Debye)      :      2.72881

                             ****ORCA TERMINATED NORMALLY****
TOTAL RUN TIME: 0 days 0 hours 0 minutes 7 seconds 376 msec
