                         Program Version 3.0.3 - RELEASE   -
|  1> ! RI PBE def2-SVP def2-SVP/J NBO PAL2
|  2> % maxcore 2000
|  3> % output
|  4>     # printlevel mini
|  5>     print[ P_Basis ] 0
|  6>     print[ P_SCFInfo ] 1
|  7>     print[ P_SCFIterInfo ] 1
|  8>     print[ P_OrbEn ] 0
|  9>     print[ P_Cartesian ] 0
| 10> end
| 11> *xyz 0 1
| 12>  C        0.6881460000    -0.7117380000    -0.0891050000
| 13>  N        2.0317910000    -0.2094440000     0.1068310000
| 14>  C        3.0471010000    -1.0556590000    -0.4745840000
| 15>  C        4.4328090000    -0.4398910000    -0.4278460000
| 16>  O        5.4024680000    -1.1239700000    -0.1932420000
| 17>  C        4.5283370000     1.0130580000    -0.7226500000
| 18>  C        5.6978600000     1.6414850000    -0.6819260000
| 19>  H       -0.0253250000    -0.0597470000     0.4180620000
| 20>  H        0.5366120000    -1.7402610000     0.2754620000
| 21>  H        0.4475550000    -0.6998590000    -1.1557070000
| 22>  H        2.2122050000    -0.0902220000     1.0958470000
| 23>  H        2.8077210000    -1.1883920000    -1.5394740000
| 24>  H        3.1157230000    -2.0631200000    -0.0380400000
| 25>  H        3.6047140000     1.5286730000    -0.9591940000
| 26>  H        6.5992010000     1.0961870000    -0.4213380000
| 27>  H        5.7857920000     2.6986100000    -0.9035860000
| 28> *
| 29>
| 30>                          ****END OF INPUT****
 Total Charge           Charge          ....    0
 Multiplicity           Mult            ....    1
 Number of Electrons    NEL             ....   54
 Basis Dimension        Dim             ....  143

MULLIKEN ATOMIC CHARGES
-----------------------
   0 C :    0.075420
   1 N :   -0.282342
   2 C :    0.159256
   3 C :   -0.034169
   4 O :   -0.159810
   5 C :   -0.052447
   6 C :    0.026798
   7 H :    0.024675
   8 H :   -0.001557
   9 H :    0.022024
  10 H :    0.108930
  11 H :    0.032405
  12 H :   -0.000670
  13 H :    0.004687
  14 H :    0.040777
  15 H :    0.036023
Sum of atomic charges:    0.0000000

LOEWDIN ATOMIC CHARGES
----------------------
   0 C :   -0.003486
   1 N :   -0.097259
   2 C :   -0.013020
   3 C :    0.039424
   4 O :   -0.121507
   5 C :   -0.072146
   6 C :    0.016790
   7 H :    0.024628
   8 H :    0.001663
   9 H :    0.022967
  10 H :    0.060104
  11 H :    0.042663
  12 H :    0.011643
  13 H :    0.026710
  14 H :    0.030678
  15 H :    0.030145

  Mayer bond orders larger than 0.1
B(  0-C ,  1-N ) :   1.0641 B(  0-C ,  7-H ) :   0.9710 B(  0-C ,  8-H ) :   0.9466
B(  0-C ,  9-H ) :   0.9696 B(  1-N ,  2-C ) :   1.0390 B(  1-N , 10-H ) :   0.9508
B(  2-C ,  3-C ) :   0.9771 B(  2-C , 11-H ) :   0.9049 B(  2-C , 12-H ) :   0.8995
B(  3-C ,  4-O ) :   2.1523 B(  3-C ,  5-C ) :   0.9850 B(  5-C ,  6-C ) :   1.9231
B(  5-C , 13-H ) :   0.9454 B(  6-C , 14-H ) :   0.9320 B(  6-C , 15-H ) :   0.9444

FINAL SINGLE POINT ENERGY      -325.234583034779

DIPOLE MOMENT
-------------
                                X             Y             Z
Electronic contribution:      6.36731      -0.46624       0.20666
Nuclear contribution   :     -7.20689       0.86786      -0.15948
                        -----------------------------------------
Total Dipole Moment    :     -0.83957       0.40161       0.04718
                        -----------------------------------------
Magnitude (a.u.)       :      0.93188
Magnitude (Debye)      :      2.36866

                             ****ORCA TERMINATED NORMALLY****
TOTAL RUN TIME: 0 days 0 hours 0 minutes 7 seconds 166 msec
