                         Program Version 3.0.3 - RELEASE   -
|  1> ! RI PBE def2-SVP def2-SVP/J NBO PAL2
|  2> % maxcore 2000
|  3> % output
|  4>     # printlevel mini
|  5>     print[ P_Basis ] 0
|  6>     print[ P_SCFInfo ] 1
|  7>     print[ P_SCFIterInfo ] 1
|  8>     print[ P_OrbEn ] 0
|  9>     print[ P_Cartesian ] 0
| 10> end
| 11> *xyz 0 1
| 12>  C        1.0968260000     0.0301570000     0.0848280000
| 13>  N        2.4950850000    -0.1237250000     0.4050130000
| 14>  C        3.1575150000     1.0940110000     0.7507830000
| 15>  C        4.6456670000     0.9940860000     0.5464400000
| 16>  O        5.1631080000     0.0876560000    -0.0602300000
| 17>  C        5.4239460000     2.0868670000     1.0977530000
| 18>  C        6.0511740000     3.0000210000     1.5625130000
| 19>  H        0.6832300000    -0.9338040000    -0.2155350000
| 20>  H        0.8992870000     0.7575850000    -0.7205940000
| 21>  H        0.5449890000     0.3612390000     0.9694880000
| 22>  H        3.0122770000    -0.5915170000    -0.3284680000
| 23>  H        2.9665520000     1.3795430000     1.7938030000
| 24>  H        2.8398060000     1.9694470000     0.1466810000
| 25>  H        6.6225480000     3.8021230000     1.9691330000
| 26> *
| 27>
| 28>                          ****END OF INPUT****
 Total Charge           Charge          ....    0
 Multiplicity           Mult            ....    1
 Number of Electrons    NEL             ....   52
 Basis Dimension        Dim             ....  133

MULLIKEN ATOMIC CHARGES
-----------------------
   0 C :    0.061161
   1 N :   -0.257686
   2 C :    0.134647
   3 C :   -0.023679
   4 O :   -0.150368
   5 C :    0.404082
   6 C :   -0.402645
   7 H :    0.026919
   8 H :    0.000869
   9 H :    0.021840
  10 H :    0.108159
  11 H :    0.034279
  12 H :    0.020303
  13 H :    0.022120
Sum of atomic charges:   -0.0000000

LOEWDIN ATOMIC CHARGES
----------------------
   0 C :   -0.003794
   1 N :   -0.096038
   2 C :   -0.007658
   3 C :    0.038085
   4 O :   -0.093957
   5 C :   -0.036725
   6 C :   -0.011230
   7 H :    0.026368
   8 H :   -0.000293
   9 H :    0.021525
  10 H :    0.052154
  11 H :    0.038775
  12 H :    0.028990
  13 H :    0.043799

  Mayer bond orders larger than 0.1
B(  0-C ,  1-N ) :   1.0668 B(  0-C ,  7-H ) :   0.9728 B(  0-C ,  8-H ) :   0.9483
B(  0-C ,  9-H ) :   0.9673 B(  1-N ,  2-C ) :   1.0822 B(  1-N , 10-H ) :   0.9236
B(  2-C ,  3-C ) :   0.9690 B(  2-C , 11-H ) :   0.9105 B(  2-C , 12-H ) :   0.8741
B(  3-C ,  4-O ) :   2.1242 B(  3-C ,  5-C ) :   0.9004 B(  5-C ,  6-C ) :   2.3276
B(  6-C , 13-H ) :   1.0862

FINAL SINGLE POINT ENERGY      -323.985786422775

DIPOLE MOMENT
-------------
                                X             Y             Z
Electronic contribution:      8.76987       0.85442       0.65710
Nuclear contribution   :     -9.20230       0.01938      -0.46754
                        -----------------------------------------
Total Dipole Moment    :     -0.43243       0.87379       0.18956
                        -----------------------------------------
Magnitude (a.u.)       :      0.99320
Magnitude (Debye)      :      2.52451

                             ****ORCA TERMINATED NORMALLY****
TOTAL RUN TIME: 0 days 0 hours 0 minutes 6 seconds 813 msec
