                         Program Version 3.0.3 - RELEASE   -
|  1> ! RI PBE def2-SVP def2-SVP/J NBO PAL2
|  2> % maxcore 2000
|  3> % output
|  4>     # printlevel mini
|  5>     print[ P_Basis ] 0
|  6>     print[ P_SCFInfo ] 1
|  7>     print[ P_SCFIterInfo ] 1
|  8>     print[ P_OrbEn ] 0
|  9>     print[ P_Cartesian ] 0
| 10> end
| 11> *xyz 0 1
| 12>  C        1.4771310000     1.1383350000     1.2432500000
| 13>  N        2.7105880000     0.5595610000     0.7573920000
| 14>  C        3.1998490000     1.1510550000    -0.4699040000
| 15>  C        4.6034790000     0.6112050000    -0.7529580000
| 16>  O        5.4182160000     0.8143800000     0.3713710000
| 17>  C        4.5427430000    -0.8271540000    -1.1869040000
| 18>  C        5.1405830000    -1.8312390000    -0.5631980000
| 19>  H        1.1587940000     0.6204900000     2.1499410000
| 20>  H        0.6511330000     1.0993490000     0.5157190000
| 21>  H        1.6421460000     2.1877080000     1.5010050000
| 22>  H        2.6074360000    -0.4409330000     0.6320050000
| 23>  H        3.2678150000     2.2329410000    -0.3192350000
| 24>  H        2.5427100000     0.9793920000    -1.3384760000
| 25>  H        5.0304050000     1.1970190000    -1.5773840000
| 26>  H        4.8202420000     0.7168100000     1.1281340000
| 27>  H        3.9541310000    -1.0162840000    -2.0837070000
| 28>  H        5.7479940000    -1.6504480000     0.3163850000
| 29>  H        5.0587060000    -2.8498080000    -0.9240360000
| 30> *
| 31>
| 32>                          ****END OF INPUT****
 Total Charge           Charge          ....    0
 Multiplicity           Mult            ....    1
 Number of Electrons    NEL             ....   56
 Basis Dimension        Dim             ....  153

MULLIKEN ATOMIC CHARGES
-----------------------
   0 C :    0.074426
   1 N :   -0.292326
   2 C :    0.066932
   3 C :    0.158336
   4 O :   -0.257873
   5 C :   -0.098011
   6 C :   -0.027463
   7 H :    0.025121
   8 H :    0.004621
   9 H :    0.024884
  10 H :    0.110375
  11 H :    0.020517
  12 H :   -0.003570
  13 H :    0.012459
  14 H :    0.140014
  15 H :   -0.006636
  16 H :    0.025639
  17 H :    0.022555
Sum of atomic charges:   -0.0000000

LOEWDIN ATOMIC CHARGES
----------------------
   0 C :   -0.003808
   1 N :   -0.093791
   2 C :    0.001513
   3 C :    0.035966
   4 O :   -0.104896
   5 C :   -0.056040
   6 C :   -0.063243
   7 H :    0.024942
   8 H :    0.003627
   9 H :    0.024598
  10 H :    0.058208
  11 H :    0.023941
  12 H :    0.003451
  13 H :    0.029987
  14 H :    0.046277
  15 H :    0.023109
  16 H :    0.022319
  17 H :    0.023839

  Mayer bond orders larger than 0.1
B(  0-C ,  1-N ) :   1.0617 B(  0-C ,  7-H ) :   0.9703 B(  0-C ,  8-H ) :   0.9496
B(  0-C ,  9-H ) :   0.9680 B(  1-N ,  2-C ) :   1.0298 B(  1-N , 10-H ) :   0.9377
B(  1-N , 14-H ) :   0.1070 B(  2-C ,  3-C ) :   1.0344 B(  2-C , 11-H ) :   0.9252
B(  2-C , 12-H ) :   0.9185 B(  3-C ,  4-O ) :   1.1127 B(  3-C ,  5-C ) :   0.9843
B(  3-C , 13-H ) :   0.8923 B(  4-O , 14-H ) :   0.9461 B(  5-C ,  6-C ) :   1.9988
B(  5-C , 15-H ) :   0.9427 B(  6-C , 16-H ) :   0.9342 B(  6-C , 17-H ) :   0.9432

FINAL SINGLE POINT ENERGY      -326.429604919373

DIPOLE MOMENT
-------------
                                X             Y             Z
Electronic contribution:      4.46153      -0.24398      -0.53067
Nuclear contribution   :     -5.46596       0.15360       0.44189
                        -----------------------------------------
Total Dipole Moment    :     -1.00443      -0.09038      -0.08878
                        -----------------------------------------
Magnitude (a.u.)       :      1.01239
Magnitude (Debye)      :      2.57328

                             ****ORCA TERMINATED NORMALLY****
TOTAL RUN TIME: 0 days 0 hours 0 minutes 7 seconds 872 msec
