                         Program Version 3.0.3 - RELEASE   -
|  1> ! RI PBE def2-SVP def2-SVP/J NBO PAL2
|  2> % maxcore 2000
|  3> % output
|  4>     # printlevel mini
|  5>     print[ P_Basis ] 0
|  6>     print[ P_SCFInfo ] 1
|  7>     print[ P_SCFIterInfo ] 1
|  8>     print[ P_OrbEn ] 0
|  9>     print[ P_Cartesian ] 0
| 10> end
| 11> *xyz 0 1
| 12>  C        1.2687960000     0.1583940000     0.2839200000
| 13>  N        2.7101370000     0.1716800000     0.1507060000
| 14>  C        3.1791770000     0.6791550000    -1.1205470000
| 15>  C        4.6875490000     0.9121090000    -1.0291190000
| 16>  O        4.9735270000     1.7706140000     0.0464690000
| 17>  C        5.3984620000    -0.3694950000    -0.9170400000
| 18>  C        5.9538960000    -1.4296190000    -0.8167510000
| 19>  H        0.9932880000    -0.2680330000     1.2500860000
| 20>  H        0.7548500000    -0.4130810000    -0.5045710000
| 21>  H        0.8896160000     1.1830450000     0.2532050000
| 22>  H        3.0844750000    -0.7593070000     0.2949370000
| 23>  H        2.7049620000     1.6491980000    -1.2970420000
| 24>  H        2.9464540000     0.0269170000    -1.9765150000
| 25>  H        5.0266330000     1.4130790000    -1.9414250000
| 26>  H        4.3698830000     1.4881730000     0.7504680000
| 27>  H        6.4670870000    -2.3580280000    -0.7274810000
| 28> *
| 29>
| 30>                          ****END OF INPUT****
 Total Charge           Charge          ....    0
 Multiplicity           Mult            ....    1
 Number of Electrons    NEL             ....   54
 Basis Dimension        Dim             ....  143

MULLIKEN ATOMIC CHARGES
-----------------------
   0 C :    0.078897
   1 N :   -0.300620
   2 C :    0.108084
   3 C :    0.161518
   4 O :   -0.261077
   5 C :    0.373681
   6 C :   -0.510239
   7 H :    0.026223
   8 H :    0.003536
   9 H :    0.024976
  10 H :    0.109846
  11 H :    0.014196
  12 H :    0.004489
  13 H :    0.021912
  14 H :    0.143613
  15 H :    0.000965
Sum of atomic charges:    0.0000000

LOEWDIN ATOMIC CHARGES
----------------------
   0 C :   -0.001234
   1 N :   -0.096542
   2 C :    0.010943
   3 C :    0.030870
   4 O :   -0.099544
   5 C :   -0.033591
   6 C :   -0.085306
   7 H :    0.025440
   8 H :    0.004180
   9 H :    0.023811
  10 H :    0.060458
  11 H :    0.025165
  12 H :    0.008692
  13 H :    0.040784
  14 H :    0.050718
  15 H :    0.035157

  Mayer bond orders larger than 0.1
B(  0-C ,  1-N ) :   1.0554 B(  0-C ,  7-H ) :   0.9724 B(  0-C ,  8-H ) :   0.9499
B(  0-C ,  9-H ) :   0.9697 B(  1-N ,  2-C ) :   1.0163 B(  1-N , 10-H ) :   0.9405
B(  2-C ,  3-C ) :   1.0476 B(  2-C , 11-H ) :   0.9228 B(  2-C , 12-H ) :   0.9175
B(  3-C ,  4-O ) :   1.0814 B(  3-C ,  5-C ) :   0.9374 B(  3-C , 13-H ) :   0.8773
B(  4-O , 14-H ) :   0.9532 B(  5-C ,  6-C ) :   2.3534 B(  5-C , 15-H ) :  -0.1123
B(  6-C , 15-H ) :   1.1014

FINAL SINGLE POINT ENERGY      -325.181990605768

DIPOLE MOMENT
-------------
                                X             Y             Z
Electronic contribution:      6.91869       0.27294      -0.26311
Nuclear contribution   :     -7.74715      -0.87427       0.12726
                        -----------------------------------------
Total Dipole Moment    :     -0.82846      -0.60133      -0.13584
                        -----------------------------------------
Magnitude (a.u.)       :      1.03267
Magnitude (Debye)      :      2.62484

                             ****ORCA TERMINATED NORMALLY****
TOTAL RUN TIME: 0 days 0 hours 0 minutes 6 seconds 822 msec
