                         Program Version 3.0.3 - RELEASE   -
|  1> ! RI PBE def2-SVP def2-SVP/J NBO PAL2
|  2> % maxcore 2000
|  3> % output
|  4>     # printlevel mini
|  5>     print[ P_Basis ] 0
|  6>     print[ P_SCFInfo ] 1
|  7>     print[ P_SCFIterInfo ] 1
|  8>     print[ P_OrbEn ] 0
|  9>     print[ P_Cartesian ] 0
| 10> end
| 11> *xyz 0 1
| 12>  C        2.2234520000    -1.7910270000     1.6157220000
| 13>  N        3.0222060000    -0.7085160000     1.0878600000
| 14>  C        3.0094700000    -0.6449330000    -0.3545810000
| 15>  C        3.9049820000     0.4558180000    -0.8587360000
| 16>  O        5.2396650000     0.1253630000    -0.5158290000
| 17>  C        6.1958450000     1.0021370000    -0.8694150000
| 18>  C        6.0533390000     2.1561490000    -1.5144140000
| 19>  H        2.3175340000    -1.8235780000     2.7027470000
| 20>  H        2.4923740000    -2.7833580000     1.2159980000
| 21>  H        1.1688970000    -1.6177460000     1.3817550000
| 22>  H        3.9806910000    -0.7975240000     1.4014670000
| 23>  H        1.9879510000    -0.4305010000    -0.6889840000
| 24>  H        3.3083040000    -1.5954560000    -0.8324150000
| 25>  H        3.6336520000     1.4107500000    -0.3933040000
| 26>  H        3.8192510000     0.5553940000    -1.9476300000
| 27>  H        7.1694660000     0.6428220000    -0.5526210000
| 28>  H        5.0992670000     2.5444450000    -1.8427800000
| 29>  H        6.9356430000     2.7446490000    -1.7234420000
| 30> *
| 31>
| 32>                          ****END OF INPUT****
 Total Charge           Charge          ....    0
 Multiplicity           Mult            ....    1
 Number of Electrons    NEL             ....   56
 Basis Dimension        Dim             ....  153

MULLIKEN ATOMIC CHARGES
-----------------------
   0 C :    0.061167
   1 N :   -0.277817
   2 C :    0.113551
   3 C :    0.133642
   4 O :   -0.274195
   5 C :    0.114267
   6 C :   -0.117980
   7 H :    0.028918
   8 H :   -0.005652
   9 H :    0.019551
  10 H :    0.103586
  11 H :    0.005982
  12 H :   -0.009224
  13 H :    0.020651
  14 H :    0.021543
  15 H :    0.008759
  16 H :    0.026845
  17 H :    0.026404
Sum of atomic charges:    0.0000000

LOEWDIN ATOMIC CHARGES
----------------------
   0 C :   -0.008295
   1 N :   -0.104616
   2 C :    0.003131
   3 C :    0.066074
   4 O :   -0.070733
   5 C :    0.031992
   6 C :   -0.155753
   7 H :    0.024571
   8 H :   -0.001311
   9 H :    0.020958
  10 H :    0.052375
  11 H :    0.026551
  12 H :    0.002278
  13 H :    0.017305
  14 H :    0.018155
  15 H :    0.022436
  16 H :    0.022394
  17 H :    0.032488

  Mayer bond orders larger than 0.1
B(  0-C ,  1-N ) :   1.0675 B(  0-C ,  7-H ) :   0.9736 B(  0-C ,  8-H ) :   0.9439
B(  0-C ,  9-H ) :   0.9688 B(  1-N ,  2-C ) :   1.0574 B(  1-N , 10-H ) :   0.9427
B(  2-C ,  3-C ) :   1.0836 B(  2-C , 11-H ) :   0.9213 B(  2-C , 12-H ) :   0.9060
B(  3-C ,  4-O ) :   0.9664 B(  3-C , 13-H ) :   0.9241 B(  3-C , 14-H ) :   0.9284
B(  4-O ,  5-C ) :   1.1542 B(  4-O ,  6-C ) :   0.1022 B(  5-C ,  6-C ) :   1.8652
B(  5-C , 15-H ) :   0.9648 B(  6-C , 16-H ) :   0.9520 B(  6-C , 17-H ) :   0.9364

FINAL SINGLE POINT ENERGY      -326.423579142681

DIPOLE MOMENT
-------------
                                X             Y             Z
Electronic contribution:      3.92775       1.38627      -0.74401
Nuclear contribution   :     -4.06051      -1.59964       0.64891
                        -----------------------------------------
Total Dipole Moment    :     -0.13276      -0.21336      -0.09510
                        -----------------------------------------
Magnitude (a.u.)       :      0.26869
Magnitude (Debye)      :      0.68295

                             ****ORCA TERMINATED NORMALLY****
TOTAL RUN TIME: 0 days 0 hours 0 minutes 7 seconds 608 msec
