                         Program Version 3.0.3 - RELEASE   -
|  1> ! RI PBE def2-SVP def2-SVP/J NBO PAL2
|  2> % maxcore 2000
|  3> % output
|  4>     # printlevel mini
|  5>     print[ P_Basis ] 0
|  6>     print[ P_SCFInfo ] 1
|  7>     print[ P_SCFIterInfo ] 1
|  8>     print[ P_OrbEn ] 0
|  9>     print[ P_Cartesian ] 0
| 10> end
| 11> *xyz 0 1
| 12>  C        1.1414060000     1.2586620000     0.2342240000
| 13>  N        2.2454220000     0.4815770000    -0.2730340000
| 14>  C        2.6927850000     0.8031960000    -1.6058950000
| 15>  C        2.8166010000    -0.5583080000     0.3859030000
| 16>  O        3.7334580000    -1.2125160000    -0.0837080000
| 17>  C        2.2817130000    -0.9026710000     1.7706540000
| 18>  N        2.6393000000     0.1241560000     2.7416300000
| 19>  H        1.2948580000     2.3097560000    -0.0260290000
| 20>  H        1.0962960000     1.1953530000     1.3188430000
| 21>  H        0.1874210000     0.9409490000    -0.2047930000
| 22>  H        1.8759170000     0.6836670000    -2.3261340000
| 23>  H        3.5072380000     0.1337850000    -1.8718030000
| 24>  H        3.0415520000     1.8398760000    -1.6529460000
| 25>  H        2.6900530000    -1.8945660000     1.9898260000
| 26>  H        1.1909600000    -0.9892970000     1.7417780000
| 27>  H        3.6474650000     0.2095580000     2.7941220000
| 28>  H        2.3189650000    -0.1417960000     3.6644610000
| 29> *
| 30>
| 31>                          ****END OF INPUT****
 Total Charge           Charge          ....    0
 Multiplicity           Mult            ....    1
 Number of Electrons    NEL             ....   56
 Basis Dimension        Dim             ....  148

MULLIKEN ATOMIC CHARGES
-----------------------
   0 C :    0.085888
   1 N :   -0.266582
   2 C :    0.086481
   3 C :    0.030974
   4 O :   -0.232202
   5 C :    0.086711
   6 N :   -0.211429
   7 H :    0.022980
   8 H :    0.053837
   9 H :    0.020691
  10 H :    0.024564
  11 H :    0.051556
  12 H :    0.025426
  13 H :    0.007167
  14 H :    0.020169
  15 H :    0.098950
  16 H :    0.094819
Sum of atomic charges:   -0.0000000

LOEWDIN ATOMIC CHARGES
----------------------
   0 C :    0.011979
   1 N :   -0.026268
   2 C :    0.014535
   3 C :    0.018063
   4 O :   -0.199995
   5 C :   -0.015831
   6 N :   -0.102056
   7 H :    0.025758
   8 H :    0.029759
   9 H :    0.016779
  10 H :    0.020894
  11 H :    0.032054
  12 H :    0.021611
  13 H :    0.014552
  14 H :    0.023845
  15 H :    0.058647
  16 H :    0.055675

  Mayer bond orders larger than 0.1
B(  0-C ,  1-N ) :   0.9996 B(  0-C ,  7-H ) :   0.9602 B(  0-C ,  8-H ) :   0.9391
B(  0-C ,  9-H ) :   0.9582 B(  1-N ,  2-C ) :   0.9951 B(  1-N ,  3-C ) :   1.1970
B(  1-N ,  4-O ) :   0.1046 B(  2-C , 10-H ) :   0.9653 B(  2-C , 11-H ) :   0.9481
B(  2-C , 12-H ) :   0.9648 B(  3-C ,  4-O ) :   2.0329 B(  3-C ,  5-C ) :   0.9939
B(  5-C ,  6-N ) :   1.0615 B(  5-C , 13-H ) :   0.9123 B(  5-C , 14-H ) :   0.9192
B(  6-N , 15-H ) :   0.9648 B(  6-N , 16-H ) :   0.9643

FINAL SINGLE POINT ENERGY      -342.497273841762

DIPOLE MOMENT
-------------
                                X             Y             Z
Electronic contribution:      3.23331      -3.36063      -0.15184
Nuclear contribution   :     -3.97787       3.95014       0.67043
                        -----------------------------------------
Total Dipole Moment    :     -0.74455       0.58951       0.51859
                        -----------------------------------------
Magnitude (a.u.)       :      1.08204
Magnitude (Debye)      :      2.75034

                             ****ORCA TERMINATED NORMALLY****
TOTAL RUN TIME: 0 days 0 hours 0 minutes 7 seconds 988 msec
