                         Program Version 3.0.3 - RELEASE   -
|  1> ! RI PBE def2-SVP def2-SVP/J NBO PAL2
|  2> % maxcore 2000
|  3> % output
|  4>     # printlevel mini
|  5>     print[ P_Basis ] 0
|  6>     print[ P_SCFInfo ] 1
|  7>     print[ P_SCFIterInfo ] 1
|  8>     print[ P_OrbEn ] 0
|  9>     print[ P_Cartesian ] 0
| 10> end
| 11> *xyz 0 1
| 12>  C        0.9190010000    -0.2457240000    -0.1260610000
| 13>  N        2.3449880000    -0.0715510000     0.0024370000
| 14>  C        3.0735180000     0.2587420000    -1.1997020000
| 15>  C        3.0275900000    -0.1967100000     1.1591090000
| 16>  O        4.2224500000    -0.0574020000     1.3022810000
| 17>  C        2.2047320000    -0.5354370000     2.3352870000
| 18>  N        1.6375680000    -0.7983830000     3.3001960000
| 19>  H        0.4575100000     0.6729510000    -0.5000350000
| 20>  H        0.4743920000    -0.4909370000     0.8369450000
| 21>  H        0.6981300000    -1.0545320000    -0.8287990000
| 22>  H        2.7044380000     1.1996570000    -1.6180140000
| 23>  H        2.9442330000    -0.5289950000    -1.9475250000
| 24>  H        4.1284510000     0.3588090000    -0.9562100000
| 25> *
| 26>
| 27>                          ****END OF INPUT****
 Total Charge           Charge          ....    0
 Multiplicity           Mult            ....    1
 Number of Electrons    NEL             ....   52
 Basis Dimension        Dim             ....  128

MULLIKEN ATOMIC CHARGES
-----------------------
   0 C :    0.089670
   1 N :   -0.277633
   2 C :    0.083230
   3 C :    0.123947
   4 O :   -0.168405
   5 C :   -0.202436
   6 N :    0.044845
   7 H :    0.042410
   8 H :    0.067692
   9 H :    0.042567
  10 H :    0.038997
  11 H :    0.046730
  12 H :    0.068387
Sum of atomic charges:   -0.0000000

LOEWDIN ATOMIC CHARGES
----------------------
   0 C :    0.023815
   1 N :   -0.006135
   2 C :    0.022336
   3 C :   -0.004191
   4 O :   -0.145002
   5 C :   -0.065373
   6 N :   -0.030815
   7 H :    0.030703
   8 H :    0.043353
   9 H :    0.030729
  10 H :    0.030167
  11 H :    0.031111
  12 H :    0.039301

  Mayer bond orders larger than 0.1
B(  0-C ,  1-N ) :   0.9989 B(  0-C ,  7-H ) :   0.9592 B(  0-C ,  8-H ) :   0.9446
B(  0-C ,  9-H ) :   0.9592 B(  1-N ,  2-C ) :   0.9751 B(  1-N ,  3-C ) :   1.2171
B(  1-N ,  4-O ) :   0.1299 B(  2-C , 10-H ) :   0.9647 B(  2-C , 11-H ) :   0.9665
B(  2-C , 12-H ) :   0.9478 B(  3-C ,  4-O ) :   2.0698 B(  3-C ,  5-C ) :   0.9050
B(  5-C ,  6-N ) :   3.0073

FINAL SINGLE POINT ENERGY      -340.089677980388

DIPOLE MOMENT
-------------
                                X             Y             Z
Electronic contribution:      2.63011      -1.13614       7.89483
Nuclear contribution   :     -3.37242       1.38566      -9.74375
                        -----------------------------------------
Total Dipole Moment    :     -0.74231       0.24953      -1.84892
                        -----------------------------------------
Magnitude (a.u.)       :      2.00794
Magnitude (Debye)      :      5.10377

                             ****ORCA TERMINATED NORMALLY****
TOTAL RUN TIME: 0 days 0 hours 0 minutes 6 seconds 494 msec
