                         Program Version 3.0.3 - RELEASE   -
|  1> ! RI PBE def2-SVP def2-SVP/J NBO PAL2
|  2> % maxcore 2000
|  3> % output
|  4>     # printlevel mini
|  5>     print[ P_Basis ] 0
|  6>     print[ P_SCFInfo ] 1
|  7>     print[ P_SCFIterInfo ] 1
|  8>     print[ P_OrbEn ] 0
|  9>     print[ P_Cartesian ] 0
| 10> end
| 11> *xyz 0 1
| 12>  C        1.2065090000     0.2136950000    -0.2936910000
| 13>  N        2.6417600000     0.2396040000    -0.1590000000
| 14>  C        3.3645920000    -0.9677220000    -0.4450520000
| 15>  C        3.3774930000    -1.2980670000    -1.9225710000
| 16>  O        3.3864170000    -2.4131580000    -2.3586030000
| 17>  C        3.2335010000     1.2564640000     0.5434830000
| 18>  N        2.7048360000     2.2861390000     1.0628980000
| 19>  H        0.9193450000    -0.5786040000    -0.9855110000
| 20>  H        0.8410120000     1.1600990000    -0.7000830000
| 21>  H        0.7043290000     0.0309260000     0.6650590000
| 22>  H        2.9865830000    -1.8367090000     0.1071820000
| 23>  H        4.4109150000    -0.8290240000    -0.1479320000
| 24>  H        3.3894200000    -0.4075480000    -2.5895250000
| 25>  H        4.3154440000     1.1310710000     0.6306780000
| 26>  H        1.6941420000     2.3107250000     0.9424690000
| 27> *
| 28>
| 29>                          ****END OF INPUT****
 Total Charge           Charge          ....    0
 Multiplicity           Mult            ....    1
 Number of Electrons    NEL             ....   54
 Basis Dimension        Dim             ....  138

MULLIKEN ATOMIC CHARGES
-----------------------
   0 C :    0.061107
   1 N :   -0.267508
   2 C :    0.128965
   3 C :    0.064620
   4 O :   -0.144851
   5 C :   -0.002526
   6 N :   -0.133929
   7 H :    0.040887
   8 H :    0.046933
   9 H :    0.039617
  10 H :    0.035366
  11 H :    0.052945
  12 H :   -0.002596
  13 H :    0.010043
  14 H :    0.070925
Sum of atomic charges:    0.0000000

LOEWDIN ATOMIC CHARGES
----------------------
   0 C :    0.009911
   1 N :   -0.049226
   2 C :   -0.009234
   3 C :    0.076031
   4 O :   -0.093156
   5 C :    0.011878
   6 N :   -0.158172
   7 H :    0.033774
   8 H :    0.029414
   9 H :    0.023895
  10 H :    0.030955
  11 H :    0.052213
  12 H :   -0.009849
  13 H :    0.013629
  14 H :    0.037938

  Mayer bond orders larger than 0.1
B(  0-C ,  1-N ) :   0.9991 B(  0-C ,  7-H ) :   0.9604 B(  0-C ,  8-H ) :   0.9589
B(  0-C ,  9-H ) :   0.9583 B(  1-N ,  2-C ) :   0.9928 B(  1-N ,  5-C ) :   1.1234
B(  2-C ,  3-C ) :   0.9474 B(  2-C , 10-H ) :   0.9144 B(  2-C , 11-H ) :   0.9030
B(  3-C ,  4-O ) :   2.1876 B(  3-C , 12-H ) :   0.9204 B(  5-C ,  6-N ) :   2.0067
B(  5-C , 13-H ) :   0.9364 B(  6-N , 14-H ) :   0.9497

FINAL SINGLE POINT ENERGY      -341.266460090853

DIPOLE MOMENT
-------------
                                X             Y             Z
Electronic contribution:      2.66976      -2.09928      -2.05250
Nuclear contribution   :     -3.12205       1.78594       1.97796
                        -----------------------------------------
Total Dipole Moment    :     -0.45228      -0.31334      -0.07454
                        -----------------------------------------
Magnitude (a.u.)       :      0.55525
Magnitude (Debye)      :      1.41133

                             ****ORCA TERMINATED NORMALLY****
TOTAL RUN TIME: 0 days 0 hours 0 minutes 7 seconds 446 msec
