                         Program Version 3.0.3 - RELEASE   -
|  1> ! RI PBE def2-SVP def2-SVP/J NBO PAL2
|  2> % maxcore 2000
|  3> % output
|  4>     # printlevel mini
|  5>     print[ P_Basis ] 0
|  6>     print[ P_SCFInfo ] 1
|  7>     print[ P_SCFIterInfo ] 1
|  8>     print[ P_OrbEn ] 0
|  9>     print[ P_Cartesian ] 0
| 10> end
| 11> *xyz 0 1
| 12>  C        0.9306840000    -0.2600490000    -0.1667300000
| 13>  N        2.3693820000    -0.2610010000    -0.1008540000
| 14>  C        3.0293490000     1.0225930000    -0.0285690000
| 15>  C        3.2978390000     1.4904700000     1.3919140000
| 16>  O        4.2527450000     0.7014910000     2.0582850000
| 17>  C        3.0713640000    -1.4258480000    -0.2494390000
| 18>  N        4.3245870000    -1.6404440000    -0.2259370000
| 19>  H        0.4881440000     0.2172290000     0.7136670000
| 20>  H        0.5656580000    -1.2865630000    -0.2070980000
| 21>  H        0.5693120000     0.2688870000    -1.0571870000
| 22>  H        2.4004940000     1.7611000000    -0.5386820000
| 23>  H        3.9752020000     0.9713460000    -0.5772120000
| 24>  H        2.3532470000     1.5306720000     1.9539820000
| 25>  H        3.7039350000     2.5051180000     1.3637380000
| 26>  H        3.9404830000    -0.2085110000     2.0810250000
| 27>  H        2.4112710000    -2.2829230000    -0.4045940000
| 28>  H        4.8670040000    -0.7958680000    -0.0531270000
| 29> *
| 30>
| 31>                          ****END OF INPUT****
 Total Charge           Charge          ....    0
 Multiplicity           Mult            ....    1
 Number of Electrons    NEL             ....   56
 Basis Dimension        Dim             ....  148

MULLIKEN ATOMIC CHARGES
-----------------------
   0 C :    0.096833
   1 N :   -0.258042
   2 C :    0.034437
   3 C :    0.189345
   4 O :   -0.282935
   5 C :   -0.020322
   6 N :   -0.152557
   7 H :    0.029770
   8 H :    0.035705
   9 H :    0.030387
  10 H :    0.012888
  11 H :    0.029725
  12 H :   -0.001476
  13 H :    0.016653
  14 H :    0.161377
  15 H :    0.008523
  16 H :    0.069690
Sum of atomic charges:   -0.0000000

LOEWDIN ATOMIC CHARGES
----------------------
   0 C :    0.019066
   1 N :   -0.051465
   2 C :    0.002302
   3 C :    0.048172
   4 O :   -0.113523
   5 C :    0.003696
   6 N :   -0.174947
   7 H :    0.019999
   8 H :    0.031498
   9 H :    0.020423
  10 H :    0.028539
  11 H :    0.026309
  12 H :    0.005199
  13 H :    0.024958
  14 H :    0.067936
  15 H :    0.012967
  16 H :    0.028872

  Mayer bond orders larger than 0.1
B(  0-C ,  1-N ) :   1.0050 B(  0-C ,  7-H ) :   0.9613 B(  0-C ,  8-H ) :   0.9589
B(  0-C ,  9-H ) :   0.9600 B(  1-N ,  2-C ) :   0.9897 B(  1-N ,  5-C ) :   1.1358
B(  1-N ,  6-N ) :   0.1145 B(  2-C ,  3-C ) :   1.0749 B(  2-C , 10-H ) :   0.9145
B(  2-C , 11-H ) :   0.9181 B(  3-C ,  4-O ) :   1.0801 B(  3-C , 12-H ) :   0.9272
B(  3-C , 13-H ) :   0.9333 B(  4-O , 14-H ) :   0.9715 B(  5-C ,  6-N ) :   1.9741
B(  5-C , 15-H ) :   0.9369 B(  6-N , 16-H ) :   0.9419

FINAL SINGLE POINT ENERGY      -342.467439348457

DIPOLE MOMENT
-------------
                                X             Y             Z
Electronic contribution:      3.47352      -1.97338       0.73804
Nuclear contribution   :     -4.86509       2.77012      -0.86270
                        -----------------------------------------
Total Dipole Moment    :     -1.39157       0.79674      -0.12466
                        -----------------------------------------
Magnitude (a.u.)       :      1.60836
Magnitude (Debye)      :      4.08812

                             ****ORCA TERMINATED NORMALLY****
TOTAL RUN TIME: 0 days 0 hours 0 minutes 7 seconds 880 msec
