                         Program Version 3.0.3 - RELEASE   -
|  1> ! RI PBE def2-SVP def2-SVP/J NBO PAL2
|  2> % maxcore 2000
|  3> % output
|  4>     # printlevel mini
|  5>     print[ P_Basis ] 0
|  6>     print[ P_SCFInfo ] 1
|  7>     print[ P_SCFIterInfo ] 1
|  8>     print[ P_OrbEn ] 0
|  9>     print[ P_Cartesian ] 0
| 10> end
| 11> *xyz 0 1
| 12>  C        2.9126570000     1.1378640000    -1.5762050000
| 13>  N        2.4457040000     0.2021370000    -0.5639220000
| 14>  C        2.9632930000    -1.1322820000    -0.6911880000
| 15>  C        2.4350520000    -1.9457270000    -1.8903940000
| 16>  O        1.4573530000    -1.6150570000    -2.4909760000
| 17>  C        4.4248560000    -1.1690420000    -0.6879270000
| 18>  N        5.5711590000    -1.2380030000    -0.7253970000
| 19>  H        2.4330960000     2.1011540000    -1.4012770000
| 20>  H        2.7019590000     0.8275760000    -2.6075100000
| 21>  H        3.9897540000     1.2810910000    -1.4676460000
| 22>  H        1.4349530000     0.1441640000    -0.5875950000
| 23>  H        2.6451750000    -1.7203780000     0.1856970000
| 24>  H        2.9874690000    -2.8791550000    -2.1225600000
| 25> *
| 26>
| 27>                          ****END OF INPUT****
 Total Charge           Charge          ....    0
 Multiplicity           Mult            ....    1
 Number of Electrons    NEL             ....   52
 Basis Dimension        Dim             ....  128

MULLIKEN ATOMIC CHARGES
-----------------------
   0 C :    0.050014
   1 N :   -0.205078
   2 C :    0.040125
   3 C :    0.124995
   4 O :   -0.136600
   5 C :   -0.248430
   6 N :    0.071934
   7 H :    0.033691
   8 H :    0.019517
   9 H :    0.050415
  10 H :    0.115817
  11 H :    0.070417
  12 H :    0.013182
Sum of atomic charges:   -0.0000000

LOEWDIN ATOMIC CHARGES
----------------------
   0 C :   -0.003362
   1 N :   -0.073832
   2 C :   -0.060089
   3 C :    0.098689
   4 O :   -0.079413
   5 C :   -0.044788
   6 N :   -0.043909
   7 H :    0.031459
   8 H :    0.007692
   9 H :    0.030960
  10 H :    0.062391
  11 H :    0.073665
  12 H :    0.000538

  Mayer bond orders larger than 0.1
B(  0-C ,  1-N ) :   1.0400 B(  0-C ,  7-H ) :   0.9713 B(  0-C ,  8-H ) :   0.9515
B(  0-C ,  9-H ) :   0.9608 B(  1-N ,  2-C ) :   1.1668 B(  1-N , 10-H ) :   0.9344
B(  2-C ,  3-C ) :   0.8689 B(  2-C ,  5-C ) :   1.0221 B(  2-C , 11-H ) :   0.8400
B(  3-C ,  4-O ) :   2.1981 B(  3-C , 12-H ) :   0.9166 B(  5-C ,  6-N ) :   3.0639

FINAL SINGLE POINT ENERGY      -340.051512956895

DIPOLE MOMENT
-------------
                                X             Y             Z
Electronic contribution:      1.40468      -4.29484       0.53143
Nuclear contribution   :     -2.31772       4.23261      -0.39237
                        -----------------------------------------
Total Dipole Moment    :     -0.91304      -0.06223       0.13905
                        -----------------------------------------
Magnitude (a.u.)       :      0.92566
Magnitude (Debye)      :      2.35285

                             ****ORCA TERMINATED NORMALLY****
TOTAL RUN TIME: 0 days 0 hours 0 minutes 6 seconds 486 msec
