                         Program Version 3.0.3 - RELEASE   -
|  1> ! RI PBE def2-SVP def2-SVP/J NBO PAL2
|  2> % maxcore 2000
|  3> % output
|  4>     # printlevel mini
|  5>     print[ P_Basis ] 0
|  6>     print[ P_SCFInfo ] 1
|  7>     print[ P_SCFIterInfo ] 1
|  8>     print[ P_OrbEn ] 0
|  9>     print[ P_Cartesian ] 0
| 10> end
| 11> *xyz 0 1
| 12>  C        2.6712600000     0.2420210000     1.2490570000
| 13>  N        2.4606210000     0.1025410000    -0.1809140000
| 14>  C        2.9763710000    -1.1276560000    -0.7406320000
| 15>  C        2.4489350000    -1.3178480000    -2.1662450000
| 16>  O        2.6756730000    -0.1926600000    -2.9743430000
| 17>  C        4.4494280000    -1.1994990000    -0.6965920000
| 18>  N        5.5980150000    -1.2167920000    -0.6369330000
| 19>  H        2.2893430000     1.2110960000     1.5726770000
| 20>  H        3.7250250000     0.1646620000     1.5519760000
| 21>  H        2.1061540000    -0.5298770000     1.7772170000
| 22>  H        2.8945590000     0.8791390000    -0.6658780000
| 23>  H        2.6015360000    -1.9633220000    -0.1379780000
| 24>  H        1.3805990000    -1.5480730000    -2.0915530000
| 25>  H        2.9551480000    -2.1627510000    -2.6371990000
| 26>  H        1.9945220000     0.4555290000    -2.7773910000
| 27> *
| 28>
| 29>                          ****END OF INPUT****
 Total Charge           Charge          ....    0
 Multiplicity           Mult            ....    1
 Number of Electrons    NEL             ....   54
 Basis Dimension        Dim             ....  138

MULLIKEN ATOMIC CHARGES
-----------------------
   0 C :    0.069601
   1 N :   -0.252738
   2 C :   -0.006228
   3 C :    0.216799
   4 O :   -0.272789
   5 C :   -0.228729
   6 N :    0.048150
   7 H :    0.029714
   8 H :    0.025320
   9 H :    0.023230
  10 H :    0.106028
  11 H :    0.038449
  12 H :    0.016673
  13 H :    0.026795
  14 H :    0.159724
Sum of atomic charges:    0.0000000

LOEWDIN ATOMIC CHARGES
----------------------
   0 C :   -0.001286
   1 N :   -0.080236
   2 C :   -0.038119
   3 C :    0.069040
   4 O :   -0.104753
   5 C :   -0.062801
   6 N :   -0.065213
   7 H :    0.028123
   8 H :    0.011319
   9 H :    0.024938
  10 H :    0.053903
  11 H :    0.050716
  12 H :    0.014741
  13 H :    0.028384
  14 H :    0.071245

  Mayer bond orders larger than 0.1
B(  0-C ,  1-N ) :   1.0501 B(  0-C ,  7-H ) :   0.9727 B(  0-C ,  8-H ) :   0.9487
B(  0-C ,  9-H ) :   0.9664 B(  1-N ,  2-C ) :   1.0791 B(  1-N , 10-H ) :   0.9311
B(  2-C ,  3-C ) :   1.0087 B(  2-C ,  5-C ) :   0.9940 B(  2-C , 11-H ) :   0.8767
B(  3-C ,  4-O ) :   1.0839 B(  3-C , 12-H ) :   0.9391 B(  3-C , 13-H ) :   0.9353
B(  4-O , 14-H ) :   0.9778 B(  5-C ,  6-N ) :   3.0701

FINAL SINGLE POINT ENERGY      -341.255452274931

DIPOLE MOMENT
-------------
                                X             Y             Z
Electronic contribution:      4.21018      -1.20818      -3.22180
Nuclear contribution   :     -5.76068       1.45869       3.58087
                        -----------------------------------------
Total Dipole Moment    :     -1.55051       0.25051       0.35907
                        -----------------------------------------
Magnitude (a.u.)       :      1.61113
Magnitude (Debye)      :      4.09518

                             ****ORCA TERMINATED NORMALLY****
TOTAL RUN TIME: 0 days 0 hours 0 minutes 6 seconds 620 msec
