                         Program Version 3.0.3 - RELEASE   -
|  1> ! RI PBE def2-SVP def2-SVP/J NBO PAL2
|  2> % maxcore 2000
|  3> % output
|  4>     # printlevel mini
|  5>     print[ P_Basis ] 0
|  6>     print[ P_SCFInfo ] 1
|  7>     print[ P_SCFIterInfo ] 1
|  8>     print[ P_OrbEn ] 0
|  9>     print[ P_Cartesian ] 0
| 10> end
| 11> *xyz 0 1
| 12>  C        1.0856250000     0.0051780000     0.1253830000
| 13>  N        2.5100180000     0.2262340000     0.2214100000
| 14>  C        3.0056300000     1.2325620000    -0.6585130000
| 15>  C        4.4890930000     1.1364820000    -0.8364760000
| 16>  O        5.1661340000     0.2154140000    -0.4718100000
| 17>  C        5.0942400000     2.2718680000    -1.5555620000
| 18>  N        5.5493580000     3.1660300000    -2.1175940000
| 19>  H        0.7972190000    -0.7973910000     0.8051870000
| 20>  H        0.7416240000    -0.2574520000    -0.8881400000
| 21>  H        0.5489270000     0.9061270000     0.4351250000
| 22>  H        3.0424400000    -0.6268650000     0.1126600000
| 23>  H        2.7673180000     2.2420380000    -0.2948620000
| 24>  H        2.5895950000     1.1950760000    -1.6885990000
| 25> *
| 26>
| 27>                          ****END OF INPUT****
 Total Charge           Charge          ....    0
 Multiplicity           Mult            ....    1
 Number of Electrons    NEL             ....   52
 Basis Dimension        Dim             ....  128

MULLIKEN ATOMIC CHARGES
-----------------------
   0 C :    0.063972
   1 N :   -0.254688
   2 C :    0.125470
   3 C :   -0.039306
   4 O :   -0.114302
   5 C :   -0.120222
   6 N :    0.071157
   7 H :    0.034163
   8 H :    0.006102
   9 H :    0.025242
  10 H :    0.114491
  11 H :    0.051450
  12 H :    0.036471
Sum of atomic charges:    0.0000000

LOEWDIN ATOMIC CHARGES
----------------------
   0 C :   -0.000256
   1 N :   -0.090971
   2 C :   -0.006447
   3 C :    0.030772
   4 O :   -0.064963
   5 C :   -0.059091
   6 N :   -0.008600
   7 H :    0.029508
   8 H :    0.003004
   9 H :    0.024261
  10 H :    0.057637
  11 H :    0.048508
  12 H :    0.036638

  Mayer bond orders larger than 0.1
B(  0-C ,  1-N ) :   1.0596 B(  0-C ,  7-H ) :   0.9729 B(  0-C ,  8-H ) :   0.9512
B(  0-C ,  9-H ) :   0.9669 B(  1-N ,  2-C ) :   1.0826 B(  1-N , 10-H ) :   0.9249
B(  2-C ,  3-C ) :   0.9829 B(  2-C , 11-H ) :   0.9039 B(  2-C , 12-H ) :   0.8692
B(  3-C ,  4-O ) :   2.1823 B(  3-C ,  5-C ) :   0.9428 B(  5-C ,  6-N ) :   3.0211

FINAL SINGLE POINT ENERGY      -340.056695281724

DIPOLE MOMENT
-------------
                                X             Y             Z
Electronic contribution:     10.09826       3.28447      -2.51874
Nuclear contribution   :    -11.38817      -3.78988       2.63728
                        -----------------------------------------
Total Dipole Moment    :     -1.28991      -0.50540       0.11853
                        -----------------------------------------
Magnitude (a.u.)       :      1.39045
Magnitude (Debye)      :      3.53424

                             ****ORCA TERMINATED NORMALLY****
TOTAL RUN TIME: 0 days 0 hours 0 minutes 6 seconds 353 msec
