                         Program Version 3.0.3 - RELEASE   -
|  1> ! RI PBE def2-SVP def2-SVP/J NBO PAL2
|  2> % maxcore 2000
|  3> % output
|  4>     # printlevel mini
|  5>     print[ P_Basis ] 0
|  6>     print[ P_SCFInfo ] 1
|  7>     print[ P_SCFIterInfo ] 1
|  8>     print[ P_OrbEn ] 0
|  9>     print[ P_Cartesian ] 0
| 10> end
| 11> *xyz 0 1
| 12>  C        0.8819750000    -0.8706280000     1.3149260000
| 13>  N        2.2616880000    -0.6331130000     0.9613100000
| 14>  C        3.1695180000    -1.5939260000     1.5421880000
| 15>  C        4.6028320000    -1.2154630000     1.2536910000
| 16>  O        4.8604360000     0.0348280000     1.8538600000
| 17>  C        5.5947570000    -2.2420660000     1.7784030000
| 18>  N        6.9425460000    -1.7082240000     1.6251860000
| 19>  H        0.2516870000    -0.0819400000     0.8992040000
| 20>  H        0.6992660000    -0.9208130000     2.4021910000
| 21>  H        0.5488710000    -1.8195680000     0.8833770000
| 22>  H        2.5470720000     0.2926010000     1.2568580000
| 23>  H        2.9635780000    -2.5810270000     1.1098760000
| 24>  H        3.0491960000    -1.6868920000     2.6380720000
| 25>  H        4.7196610000    -1.1327550000     0.1597350000
| 26>  H        5.8258000000     0.0766610000     1.9295110000
| 27>  H        5.4347890000    -3.2061650000     1.2762670000
| 28>  H        5.4105440000    -2.3876880000     2.8470710000
| 29>  H        7.2679050000    -1.8034650000     0.6711500000
| 30>  H        7.6039910000    -2.1843710000     2.2222040000
| 31> *
| 32>
| 33>                          ****END OF INPUT****
 Total Charge           Charge          ....    0
 Multiplicity           Mult            ....    1
 Number of Electrons    NEL             ....   58
 Basis Dimension        Dim             ....  158

MULLIKEN ATOMIC CHARGES
-----------------------
   0 C :    0.078961
   1 N :   -0.269531
   2 C :    0.149558
   3 C :    0.039603
   4 O :   -0.273098
   5 C :    0.075979
   6 N :   -0.216217
   7 H :    0.019172
   8 H :   -0.008822
   9 H :    0.008229
  10 H :    0.104945
  11 H :   -0.010763
  12 H :   -0.025720
  13 H :   -0.013575
  14 H :    0.136690
  15 H :   -0.004678
  16 H :    0.007110
  17 H :    0.098884
  18 H :    0.103271
Sum of atomic charges:   -0.0000000

LOEWDIN ATOMIC CHARGES
----------------------
   0 C :   -0.006794
   1 N :   -0.104620
   2 C :    0.006586
   3 C :    0.027654
   4 O :   -0.123232
   5 C :   -0.005538
   6 N :   -0.091233
   7 H :    0.021914
   8 H :   -0.003453
   9 H :    0.017631
  10 H :    0.054191
  11 H :    0.017253
  12 H :   -0.002978
  13 H :    0.003315
  14 H :    0.045248
  15 H :    0.006134
  16 H :    0.021525
  17 H :    0.057292
  18 H :    0.059108

  Mayer bond orders larger than 0.1
B(  0-C ,  1-N ) :   1.0679 B(  0-C ,  7-H ) :   0.9722 B(  0-C ,  8-H ) :   0.9426
B(  0-C ,  9-H ) :   0.9671 B(  1-N ,  2-C ) :   1.0616 B(  1-N , 10-H ) :   0.9360
B(  2-C ,  3-C ) :   1.0572 B(  2-C , 11-H ) :   0.9176 B(  2-C , 12-H ) :   0.8938
B(  3-C ,  4-O ) :   1.0803 B(  3-C ,  5-C ) :   1.0425 B(  3-C , 13-H ) :   0.8917
B(  4-O , 14-H ) :   0.9416 B(  5-C ,  6-N ) :   1.0926 B(  5-C , 15-H ) :   0.9246
B(  5-C , 16-H ) :   0.9218 B(  6-N , 14-H ) :   0.1167 B(  6-N , 17-H ) :   0.9682
B(  6-N , 18-H ) :   0.9648

FINAL SINGLE POINT ENERGY      -343.669634835147

DIPOLE MOMENT
-------------
                                X             Y             Z
Electronic contribution:      3.18096       2.51134      -0.32346
Nuclear contribution   :     -2.41180      -3.26694       0.40624
                        -----------------------------------------
Total Dipole Moment    :      0.76916      -0.75561       0.08279
                        -----------------------------------------
Magnitude (a.u.)       :      1.08139
Magnitude (Debye)      :      2.74867

                             ****ORCA TERMINATED NORMALLY****
TOTAL RUN TIME: 0 days 0 hours 0 minutes 8 seconds 139 msec
