                         Program Version 3.0.3 - RELEASE   -
|  1> ! RI PBE def2-SVP def2-SVP/J NBO PAL2
|  2> % maxcore 2000
|  3> % output
|  4>     # printlevel mini
|  5>     print[ P_Basis ] 0
|  6>     print[ P_SCFInfo ] 1
|  7>     print[ P_SCFIterInfo ] 1
|  8>     print[ P_OrbEn ] 0
|  9>     print[ P_Cartesian ] 0
| 10> end
| 11> *xyz 0 1
| 12>  C        1.0032600000    -0.1762150000     0.0015160000
| 13>  N        2.4345830000     0.0123260000    -0.1303630000
| 14>  C        2.9072840000     1.2990880000     0.3303120000
| 15>  C        4.4238870000     1.2205970000     0.5146360000
| 16>  O        4.7623680000     0.1374530000     1.3274290000
| 17>  C        5.0762890000     1.1269180000    -0.8090950000
| 18>  N        5.5438530000     1.0414560000    -1.8560750000
| 19>  H        0.7275030000    -1.1553840000    -0.3926560000
| 20>  H        0.4062890000     0.5867050000    -0.5196590000
| 21>  H        0.7285680000    -0.1537890000     1.0587960000
| 22>  H        2.7158390000    -0.1302740000    -1.0939900000
| 23>  H        2.4736810000     1.4907580000     1.3157970000
| 24>  H        2.6431870000     2.1423130000    -0.3251450000
| 25>  H        4.7864300000     2.1346030000     0.9938140000
| 26>  H        4.1321900000    -0.5590670000     1.0788940000
| 27> *
| 28>
| 29>                          ****END OF INPUT****
 Total Charge           Charge          ....    0
 Multiplicity           Mult            ....    1
 Number of Electrons    NEL             ....   54
 Basis Dimension        Dim             ....  138

MULLIKEN ATOMIC CHARGES
-----------------------
   0 C :    0.077585
   1 N :   -0.305044
   2 C :    0.102302
   3 C :    0.152053
   4 O :   -0.250308
   5 C :   -0.230911
   6 N :    0.034628
   7 H :    0.031712
   8 H :    0.010159
   9 H :    0.028949
  10 H :    0.119546
  11 H :    0.024775
  12 H :    0.018937
  13 H :    0.036420
  14 H :    0.149198
Sum of atomic charges:    0.0000000

LOEWDIN ATOMIC CHARGES
----------------------
   0 C :    0.001340
   1 N :   -0.093069
   2 C :    0.012895
   3 C :    0.019057
   4 O :   -0.086995
   5 C :   -0.062171
   6 N :   -0.063503
   7 H :    0.028363
   8 H :    0.007532
   9 H :    0.025274
  10 H :    0.064681
  11 H :    0.030194
  12 H :    0.014770
  13 H :    0.047609
  14 H :    0.054024

  Mayer bond orders larger than 0.1
B(  0-C ,  1-N ) :   1.0488 B(  0-C ,  7-H ) :   0.9724 B(  0-C ,  8-H ) :   0.9523
B(  0-C ,  9-H ) :   0.9704 B(  1-N ,  2-C ) :   1.0172 B(  1-N , 10-H ) :   0.9408
B(  1-N , 14-H ) :   0.1045 B(  2-C ,  3-C ) :   1.0625 B(  2-C , 11-H ) :   0.9247
B(  2-C , 12-H ) :   0.9182 B(  3-C ,  4-O ) :   1.1172 B(  3-C ,  5-C ) :   0.9778
B(  3-C , 13-H ) :   0.8721 B(  4-O , 14-H ) :   0.9458 B(  5-C ,  6-N ) :   3.0713

FINAL SINGLE POINT ENERGY      -341.260815787376

DIPOLE MOMENT
-------------
                                X             Y             Z
Electronic contribution:      8.55349       0.80227      -1.78717
Nuclear contribution   :    -10.08797      -0.64701       2.29499
                        -----------------------------------------
Total Dipole Moment    :     -1.53449       0.15526       0.50782
                        -----------------------------------------
Magnitude (a.u.)       :      1.62377
Magnitude (Debye)      :      4.12730

                             ****ORCA TERMINATED NORMALLY****
TOTAL RUN TIME: 0 days 0 hours 0 minutes 6 seconds 582 msec
