                         Program Version 3.0.3 - RELEASE   -
|  1> ! RI PBE def2-SVP def2-SVP/J NBO PAL2
|  2> % maxcore 2000
|  3> % output
|  4>     # printlevel mini
|  5>     print[ P_Basis ] 0
|  6>     print[ P_SCFInfo ] 1
|  7>     print[ P_SCFIterInfo ] 1
|  8>     print[ P_OrbEn ] 0
|  9>     print[ P_Cartesian ] 0
| 10> end
| 11> *xyz 0 1
| 12>  C        0.9132100000    -0.6518140000     0.4259640000
| 13>  N        2.2423500000    -0.0903100000     0.4556990000
| 14>  C        2.9176240000    -0.1284230000     1.7271960000
| 15>  C        2.7757590000     0.4292320000    -0.6693830000
| 16>  O        2.1856040000     0.4529720000    -1.7403670000
| 17>  C        4.1817890000     1.0185990000    -0.6175710000
| 18>  O        4.5273500000     1.4919690000    -1.8759760000
| 19>  H        0.2575750000    -0.1196870000     1.1226750000
| 20>  H        0.9377150000    -1.7077490000     0.7137020000
| 21>  H        0.5175940000    -0.5614980000    -0.5825490000
| 22>  H        2.3471220000     0.4241220000     2.4814140000
| 23>  H        3.9093440000     0.3110160000     1.6627460000
| 24>  H        3.0235400000    -1.1617980000     2.0743160000
| 25>  H        4.8904460000     0.2464120000    -0.2859760000
| 26>  H        4.2116040000     1.8301370000     0.1233130000
| 27>  H        3.7475660000     1.3000210000    -2.4270150000
| 28> *
| 29>
| 30>                          ****END OF INPUT****
 Total Charge           Charge          ....    0
 Multiplicity           Mult            ....    1
 Number of Electrons    NEL             ....   56
 Basis Dimension        Dim             ....  143

MULLIKEN ATOMIC CHARGES
-----------------------
   0 C :    0.084472
   1 N :   -0.262394
   2 C :    0.081142
   3 C :    0.023516
   4 O :   -0.251595
   5 C :    0.151958
   6 O :   -0.268020
   7 H :    0.030891
   8 H :    0.030922
   9 H :    0.060532
  10 H :    0.037429
  11 H :    0.048409
  12 H :    0.035226
  13 H :    0.024681
  14 H :    0.024006
  15 H :    0.148823
Sum of atomic charges:   -0.0000000

LOEWDIN ATOMIC CHARGES
----------------------
   0 C :    0.018874
   1 N :   -0.024249
   2 C :    0.020206
   3 C :    0.017322
   4 O :   -0.191121
   5 C :    0.016442
   6 O :   -0.121750
   7 H :    0.024564
   8 H :    0.024546
   9 H :    0.036563
  10 H :    0.027317
  11 H :    0.035610
  12 H :    0.026853
  13 H :    0.018953
  14 H :    0.018776
  15 H :    0.051095

  Mayer bond orders larger than 0.1
B(  0-C ,  1-N ) :   0.9854 B(  0-C ,  7-H ) :   0.9653 B(  0-C ,  8-H ) :   0.9654
B(  0-C ,  9-H ) :   0.9516 B(  1-N ,  2-C ) :   1.0104 B(  1-N ,  3-C ) :   1.2061
B(  2-C , 10-H ) :   0.9595 B(  2-C , 11-H ) :   0.9550 B(  2-C , 12-H ) :   0.9588
B(  3-C ,  4-O ) :   1.9458 B(  3-C ,  5-C ) :   0.9695 B(  4-O , 15-H ) :   0.1177
B(  5-C ,  6-O ) :   1.1656 B(  5-C , 13-H ) :   0.9061 B(  5-C , 14-H ) :   0.9073
B(  6-O , 15-H ) :   0.9353

FINAL SINGLE POINT ENERGY      -362.344166950947

DIPOLE MOMENT
-------------
                                X             Y             Z
Electronic contribution:      1.14214       2.01098      -5.90198
Nuclear contribution   :     -1.56299      -2.60568       7.50200
                        -----------------------------------------
Total Dipole Moment    :     -0.42084      -0.59469       1.60002
                        -----------------------------------------
Magnitude (a.u.)       :      1.75808
Magnitude (Debye)      :      4.46868

                             ****ORCA TERMINATED NORMALLY****
TOTAL RUN TIME: 0 days 0 hours 0 minutes 6 seconds 888 msec
