                         Program Version 3.0.3 - RELEASE   -
|  1> ! RI PBE def2-SVP def2-SVP/J NBO PAL2
|  2> % maxcore 2000
|  3> % output
|  4>     # printlevel mini
|  5>     print[ P_Basis ] 0
|  6>     print[ P_SCFInfo ] 1
|  7>     print[ P_SCFIterInfo ] 1
|  8>     print[ P_OrbEn ] 0
|  9>     print[ P_Cartesian ] 0
| 10> end
| 11> *xyz 0 1
| 12>  C        1.0968340000     0.4287720000     0.3797870000
| 13>  N        2.3327430000    -0.0239630000    -0.2155240000
| 14>  C        3.1037090000     0.9837130000    -0.9066460000
| 15>  C        2.8020070000    -1.2845050000    -0.1789140000
| 16>  O        3.8344800000    -1.6615940000    -0.7104240000
| 17>  C        2.0823870000    -2.3777330000     0.6073490000
| 18>  O        1.5008530000    -2.2473990000     1.6473270000
| 19>  H        0.4772840000     0.9083610000    -0.3843910000
| 20>  H        1.2999150000     1.1639730000     1.1648950000
| 21>  H        0.5497140000    -0.3962420000     0.8221900000
| 22>  H        2.5018680000     1.4423600000    -1.6968790000
| 23>  H        3.9848510000     0.5185080000    -1.3416040000
| 24>  H        3.4133430000     1.7682510000    -0.2090610000
| 25>  H        2.2810130000    -3.3681910000     0.1547650000
| 26> *
| 27>
| 28>                          ****END OF INPUT****
 Total Charge           Charge          ....    0
 Multiplicity           Mult            ....    1
 Number of Electrons    NEL             ....   54
 Basis Dimension        Dim             ....  133

MULLIKEN ATOMIC CHARGES
-----------------------
   0 C :    0.081844
   1 N :   -0.261269
   2 C :    0.083668
   3 C :    0.081069
   4 O :   -0.221247
   5 C :    0.117311
   6 O :   -0.151066
   7 H :    0.029944
   8 H :    0.038827
   9 H :    0.061278
  10 H :    0.034463
  11 H :    0.056207
  12 H :    0.036726
  13 H :    0.012247
Sum of atomic charges:   -0.0000000

LOEWDIN ATOMIC CHARGES
----------------------
   0 C :    0.018925
   1 N :   -0.009644
   2 C :    0.020230
   3 C :   -0.020249
   4 O :   -0.170061
   5 C :    0.071711
   6 O :   -0.090319
   7 H :    0.024906
   8 H :    0.028478
   9 H :    0.033517
  10 H :    0.026397
  11 H :    0.035303
  12 H :    0.028017
  13 H :    0.002788

  Mayer bond orders larger than 0.1
B(  0-C ,  1-N ) :   0.9937 B(  0-C ,  7-H ) :   0.9570 B(  0-C ,  8-H ) :   0.9617
B(  0-C ,  9-H ) :   0.9517 B(  1-N ,  2-C ) :   0.9842 B(  1-N ,  3-C ) :   1.2162
B(  1-N ,  4-O ) :   0.1222 B(  2-C , 10-H ) :   0.9650 B(  2-C , 11-H ) :   0.9503
B(  2-C , 12-H ) :   0.9644 B(  3-C ,  4-O ) :   1.9598 B(  3-C ,  5-C ) :   0.8814
B(  5-C ,  6-O ) :   2.1067 B(  5-C , 13-H ) :   0.9116

FINAL SINGLE POINT ENERGY      -361.136490223990

DIPOLE MOMENT
-------------
                                X             Y             Z
Electronic contribution:      1.47025      -6.54866       1.68340
Nuclear contribution   :     -2.08569       7.58950      -1.99172
                        -----------------------------------------
Total Dipole Moment    :     -0.61544       1.04085      -0.30831
                        -----------------------------------------
Magnitude (a.u.)       :      1.24787
Magnitude (Debye)      :      3.17183

                             ****ORCA TERMINATED NORMALLY****
TOTAL RUN TIME: 0 days 0 hours 0 minutes 7 seconds 248 msec
