                         Program Version 3.0.3 - RELEASE   -
|  1> ! RI PBE def2-SVP def2-SVP/J NBO PAL2
|  2> % maxcore 2000
|  3> % output
|  4>     # printlevel mini
|  5>     print[ P_Basis ] 0
|  6>     print[ P_SCFInfo ] 1
|  7>     print[ P_SCFIterInfo ] 1
|  8>     print[ P_OrbEn ] 0
|  9>     print[ P_Cartesian ] 0
| 10> end
| 11> *xyz 0 1
| 12>  C        0.7531930000     0.0519670000    -0.2829920000
| 13>  N        2.0753390000     0.5412140000    -0.5801030000
| 14>  C        3.1286770000     0.2832440000     0.3646710000
| 15>  C        3.5847230000    -1.1567780000     0.3451020000
| 16>  O        3.9703550000    -1.7503200000     1.3109170000
| 17>  C        2.3334270000     1.2833030000    -1.6866690000
| 18>  O        3.4113980000     1.7458150000    -1.9785830000
| 19>  H        0.3740030000     0.4835730000     0.6489420000
| 20>  H        0.7426670000    -1.0377630000    -0.1843970000
| 21>  H        0.0759960000     0.3272910000    -1.0923670000
| 22>  H        2.8341430000     0.5564740000     1.3821610000
| 23>  H        3.9850050000     0.9004280000     0.0674290000
| 24>  H        3.5539050000    -1.6347410000    -0.6592330000
| 25>  H        1.4323590000     1.4252920000    -2.3110890000
| 26> *
| 27>
| 28>                          ****END OF INPUT****
 Total Charge           Charge          ....    0
 Multiplicity           Mult            ....    1
 Number of Electrons    NEL             ....   54
 Basis Dimension        Dim             ....  133

MULLIKEN ATOMIC CHARGES
-----------------------
   0 C :    0.083599
   1 N :   -0.272886
   2 C :    0.128774
   3 C :    0.064577
   4 O :   -0.149332
   5 C :    0.157095
   6 O :   -0.229614
   7 H :    0.039017
   8 H :    0.046707
   9 H :    0.042485
  10 H :    0.032620
  11 H :    0.069801
  12 H :   -0.000365
  13 H :   -0.012480
Sum of atomic charges:   -0.0000000

LOEWDIN ATOMIC CHARGES
----------------------
   0 C :    0.019379
   1 N :   -0.030117
   2 C :   -0.009460
   3 C :    0.083080
   4 O :   -0.094983
   5 C :    0.049833
   6 O :   -0.176934
   7 H :    0.027495
   8 H :    0.027253
   9 H :    0.033093
  10 H :    0.034273
  11 H :    0.055953
  12 H :   -0.008869
  13 H :   -0.009995

  Mayer bond orders larger than 0.1
B(  0-C ,  1-N ) :   0.9970 B(  0-C ,  7-H ) :   0.9600 B(  0-C ,  8-H ) :   0.9637
B(  0-C ,  9-H ) :   0.9587 B(  1-N ,  2-C ) :   0.9617 B(  1-N ,  5-C ) :   1.1722
B(  1-N ,  6-O ) :   0.1022 B(  2-C ,  3-C ) :   0.9615 B(  2-C , 10-H ) :   0.9196
B(  2-C , 11-H ) :   0.8843 B(  3-C ,  4-O ) :   2.1888 B(  3-C , 12-H ) :   0.9238
B(  5-C ,  6-O ) :   2.0060 B(  5-C , 13-H ) :   0.9214

FINAL SINGLE POINT ENERGY      -361.138238635191

DIPOLE MOMENT
-------------
                                X             Y             Z
Electronic contribution:      4.52119      -0.11462      -0.23297
Nuclear contribution   :     -5.83746       0.04071       0.32897
                        -----------------------------------------
Total Dipole Moment    :     -1.31627      -0.07391       0.09600
                        -----------------------------------------
Magnitude (a.u.)       :      1.32183
Magnitude (Debye)      :      3.35984

                             ****ORCA TERMINATED NORMALLY****
TOTAL RUN TIME: 0 days 0 hours 0 minutes 6 seconds 188 msec
