                         Program Version 3.0.3 - RELEASE   -
|  1> ! RI PBE def2-SVP def2-SVP/J NBO PAL2
|  2> % maxcore 2000
|  3> % output
|  4>     # printlevel mini
|  5>     print[ P_Basis ] 0
|  6>     print[ P_SCFInfo ] 1
|  7>     print[ P_SCFIterInfo ] 1
|  8>     print[ P_OrbEn ] 0
|  9>     print[ P_Cartesian ] 0
| 10> end
| 11> *xyz 0 1
| 12>  C        0.7881900000    -0.2141620000    -0.3010030000
| 13>  N        2.0253620000    -0.9543200000    -0.2832540000
| 14>  C        3.2487930000    -0.2739400000     0.1002550000
| 15>  C        4.1305980000     0.0743370000    -1.0865870000
| 16>  O        3.4800220000     0.9112260000    -2.0217020000
| 17>  C        2.0575090000    -2.2873710000    -0.5009270000
| 18>  O        3.0543170000    -2.9748490000    -0.4493760000
| 19>  H        0.5258920000     0.1459710000     0.6996720000
| 20>  H       -0.0158030000    -0.8623540000    -0.6533990000
| 21>  H        0.8595000000     0.6487030000    -0.9667950000
| 22>  H        3.8105390000    -0.9218820000     0.7793120000
| 23>  H        2.9707340000     0.6379880000     0.6339590000
| 24>  H        4.4860460000    -0.8478570000    -1.5573830000
| 25>  H        5.0041250000     0.6234950000    -0.7251470000
| 26>  H        2.9389130000     0.3584050000    -2.5895460000
| 27>  H        1.0595440000    -2.7012710000    -0.7408580000
| 28> *
| 29>
| 30>                          ****END OF INPUT****
 Total Charge           Charge          ....    0
 Multiplicity           Mult            ....    1
 Number of Electrons    NEL             ....   56
 Basis Dimension        Dim             ....  143

MULLIKEN ATOMIC CHARGES
-----------------------
   0 C :    0.090421
   1 N :   -0.266433
   2 C :    0.098509
   3 C :    0.147118
   4 O :   -0.290888
   5 C :    0.146003
   6 O :   -0.240451
   7 H :    0.034529
   8 H :    0.032935
   9 H :    0.031955
  10 H :    0.028255
  11 H :    0.013093
  12 H :    0.024070
  13 H :    0.017365
  14 H :    0.158281
  15 H :   -0.024763
Sum of atomic charges:   -0.0000000

LOEWDIN ATOMIC CHARGES
----------------------
   0 C :    0.016284
   1 N :   -0.030444
   2 C :    0.011202
   3 C :    0.051864
   4 O :   -0.121740
   5 C :    0.040967
   6 O :   -0.191727
   7 H :    0.023906
   8 H :    0.028959
   9 H :    0.021467
  10 H :    0.032721
  11 H :    0.025254
  12 H :    0.015300
  13 H :    0.024135
  14 H :    0.068296
  15 H :   -0.016445

  Mayer bond orders larger than 0.1
B(  0-C ,  1-N ) :   1.0045 B(  0-C ,  7-H ) :   0.9600 B(  0-C ,  8-H ) :   0.9570
B(  0-C ,  9-H ) :   0.9569 B(  1-N ,  2-C ) :   0.9671 B(  1-N ,  5-C ) :   1.1988
B(  2-C ,  3-C ) :   1.0671 B(  2-C , 10-H ) :   0.9138 B(  2-C , 11-H ) :   0.9276
B(  3-C ,  4-O ) :   1.0683 B(  3-C , 12-H ) :   0.9396 B(  3-C , 13-H ) :   0.9387
B(  4-O , 14-H ) :   0.9818 B(  5-C ,  6-O ) :   1.9892 B(  5-C , 15-H ) :   0.9215

FINAL SINGLE POINT ENERGY      -362.336434841726

DIPOLE MOMENT
-------------
                                X             Y             Z
Electronic contribution:      1.55961      -3.30162      -0.86354
Nuclear contribution   :     -2.40992       3.94894       0.92540
                        -----------------------------------------
Total Dipole Moment    :     -0.85031       0.64732       0.06186
                        -----------------------------------------
Magnitude (a.u.)       :      1.07045
Magnitude (Debye)      :      2.72088

                             ****ORCA TERMINATED NORMALLY****
TOTAL RUN TIME: 0 days 0 hours 0 minutes 6 seconds 700 msec
