                         Program Version 3.0.3 - RELEASE   -
|  1> ! RI PBE def2-SVP def2-SVP/J NBO PAL2
|  2> % maxcore 2000
|  3> % output
|  4>     # printlevel mini
|  5>     print[ P_Basis ] 0
|  6>     print[ P_SCFInfo ] 1
|  7>     print[ P_SCFIterInfo ] 1
|  8>     print[ P_OrbEn ] 0
|  9>     print[ P_Cartesian ] 0
| 10> end
| 11> *xyz 0 1
| 12>  C        3.4631820000    -2.0079720000    -1.3200670000
| 13>  N        2.8416430000    -1.0836020000    -0.3835350000
| 14>  C        3.1329240000    -1.3419930000     0.9989460000
| 15>  C        2.6972370000    -2.6946060000     1.5548030000
| 16>  O        1.8750140000    -3.3773050000     1.0115940000
| 17>  C        4.5824770000    -1.0389760000     1.3307920000
| 18>  O        5.1112670000    -1.3559890000     2.3586910000
| 19>  H        3.2225570000    -1.6935090000    -2.3365240000
| 20>  H        3.1537260000    -3.0520290000    -1.1950570000
| 21>  H        4.5509050000    -1.9578480000    -1.2194710000
| 22>  H        1.8403820000    -1.0758460000    -0.5241710000
| 23>  H        2.5800400000    -0.6128400000     1.6160990000
| 24>  H        3.1763300000    -2.9935570000     2.5071610000
| 25>  H        5.1136080000    -0.4604580000     0.5470400000
| 26> *
| 27>
| 28>                          ****END OF INPUT****
 Total Charge           Charge          ....    0
 Multiplicity           Mult            ....    1
 Number of Electrons    NEL             ....   54
 Basis Dimension        Dim             ....  133

MULLIKEN ATOMIC CHARGES
-----------------------
   0 C :    0.042345
   1 N :   -0.212128
   2 C :   -0.040841
   3 C :    0.111160
   4 O :   -0.153415
   5 C :    0.096654
   6 O :   -0.149671
   7 H :    0.032910
   8 H :    0.028674
   9 H :    0.027708
  10 H :    0.110770
  11 H :    0.078150
  12 H :    0.009827
  13 H :    0.017856
Sum of atomic charges:   -0.0000000

LOEWDIN ATOMIC CHARGES
----------------------
   0 C :   -0.006660
   1 N :   -0.083438
   2 C :   -0.087360
   3 C :    0.092830
   4 O :   -0.096012
   5 C :    0.091516
   6 O :   -0.098203
   7 H :    0.029140
   8 H :    0.008042
   9 H :    0.021936
  10 H :    0.062651
  11 H :    0.072001
  12 H :   -0.004346
  13 H :   -0.002096

  Mayer bond orders larger than 0.1
B(  0-C ,  1-N ) :   1.0466 B(  0-C ,  7-H ) :   0.9730 B(  0-C ,  8-H ) :   0.9506
B(  0-C ,  9-H ) :   0.9664 B(  1-N ,  2-C ) :   1.1241 B(  1-N , 10-H ) :   0.9356
B(  2-C ,  3-C ) :   0.8728 B(  2-C ,  5-C ) :   0.8883 B(  2-C , 11-H ) :   0.8645
B(  3-C ,  4-O ) :   2.1698 B(  3-C , 12-H ) :   0.9180 B(  5-C ,  6-O ) :   2.1668
B(  5-C , 13-H ) :   0.9261

FINAL SINGLE POINT ENERGY      -361.102938218697

DIPOLE MOMENT
-------------
                                X             Y             Z
Electronic contribution:     -0.19739      -0.61889       5.20045
Nuclear contribution   :     -0.04227       1.08227      -5.66172
                        -----------------------------------------
Total Dipole Moment    :     -0.23966       0.46338      -0.46126
                        -----------------------------------------
Magnitude (a.u.)       :      0.69636
Magnitude (Debye)      :      1.77001

                             ****ORCA TERMINATED NORMALLY****
TOTAL RUN TIME: 0 days 0 hours 0 minutes 6 seconds 428 msec
