                         Program Version 3.0.3 - RELEASE   -
|  1> ! RI PBE def2-SVP def2-SVP/J NBO PAL2
|  2> % maxcore 2000
|  3> % output
|  4>     # printlevel mini
|  5>     print[ P_Basis ] 0
|  6>     print[ P_SCFInfo ] 1
|  7>     print[ P_SCFIterInfo ] 1
|  8>     print[ P_OrbEn ] 0
|  9>     print[ P_Cartesian ] 0
| 10> end
| 11> *xyz 0 1
| 12>  C        2.8145370000     0.5854300000     0.2028880000
| 13>  N        3.7863930000     0.8406930000    -0.8377810000
| 14>  C        3.9712120000    -0.2489990000    -1.7866980000
| 15>  C        3.0395360000     0.0033640000    -2.9725870000
| 16>  O        3.2410520000     1.3098980000    -3.4712780000
| 17>  C        5.4268960000    -0.3475110000    -2.2266700000
| 18>  O        5.9531230000     0.8569990000    -2.7258510000
| 19>  H        2.7439590000     1.4519910000     0.8628390000
| 20>  H        3.0460140000    -0.2997290000     0.8157320000
| 21>  H        1.8264040000     0.4318870000    -0.2383050000
| 22>  H        4.6755550000     1.1278880000    -0.4524120000
| 23>  H        3.7104800000    -1.2220850000    -1.3381750000
| 24>  H        1.9924570000    -0.1357030000    -2.6688070000
| 25>  H        3.2444680000    -0.6995010000    -3.7840600000
| 26>  H        3.2740880000     1.8534460000    -2.6660840000
| 27>  H        5.5086280000    -1.1586740000    -2.9655310000
| 28>  H        6.0488050000    -0.6272720000    -1.3695750000
| 29>  H        5.2958950000     1.2171490000    -3.3371760000
| 30> *
| 31>
| 32>                          ****END OF INPUT****
 Total Charge           Charge          ....    0
 Multiplicity           Mult            ....    1
 Number of Electrons    NEL             ....   58
 Basis Dimension        Dim             ....  153

MULLIKEN ATOMIC CHARGES
-----------------------
   0 C :    0.065150
   1 N :   -0.238416
   2 C :   -0.151598
   3 C :    0.234352
   4 O :   -0.292602
   5 C :    0.220035
   6 O :   -0.290925
   7 H :    0.031923
   8 H :    0.009372
   9 H :    0.021191
  10 H :    0.109110
  11 H :   -0.010044
  12 H :   -0.001019
  13 H :    0.011345
  14 H :    0.146073
  15 H :   -0.002856
  16 H :    0.005900
  17 H :    0.133009
Sum of atomic charges:   -0.0000000

LOEWDIN ATOMIC CHARGES
----------------------
   0 C :   -0.003468
   1 N :   -0.084850
   2 C :   -0.037078
   3 C :    0.051335
   4 O :   -0.114053
   5 C :    0.054033
   6 O :   -0.127356
   7 H :    0.026307
   8 H :    0.005338
   9 H :    0.021522
  10 H :    0.058594
  11 H :    0.013836
  12 H :    0.004282
  13 H :    0.019660
  14 H :    0.046552
  15 H :    0.006459
  16 H :    0.015645
  17 H :    0.043243

  Mayer bond orders larger than 0.1
B(  0-C ,  1-N ) :   1.0535 B(  0-C ,  7-H ) :   0.9717 B(  0-C ,  8-H ) :   0.9511
B(  0-C ,  9-H ) :   0.9663 B(  1-N ,  2-C ) :   1.0552 B(  1-N , 10-H ) :   0.9368
B(  1-N , 14-H ) :   0.1107 B(  2-C ,  3-C ) :   1.0237 B(  2-C ,  5-C ) :   1.0381
B(  2-C , 11-H ) :   0.8875 B(  3-C ,  4-O ) :   1.0375 B(  3-C , 12-H ) :   0.9245
B(  3-C , 13-H ) :   0.9410 B(  4-O , 14-H ) :   0.9346 B(  4-O , 17-H ) :   0.1246
B(  5-C ,  6-O ) :   1.0892 B(  5-C , 15-H ) :   0.9273 B(  5-C , 16-H ) :   0.9304
B(  6-O , 17-H ) :   0.9493

FINAL SINGLE POINT ENERGY      -363.509968799825

DIPOLE MOMENT
-------------
                                X             Y             Z
Electronic contribution:      2.42488       2.40825      -3.65104
Nuclear contribution   :     -2.89493      -2.90152       4.46883
                        -----------------------------------------
Total Dipole Moment    :     -0.47005      -0.49327       0.81779
                        -----------------------------------------
Magnitude (a.u.)       :      1.06445
Magnitude (Debye)      :      2.70561

                             ****ORCA TERMINATED NORMALLY****
TOTAL RUN TIME: 0 days 0 hours 0 minutes 7 seconds 990 msec
