                         Program Version 3.0.3 - RELEASE   -
|  1> ! RI PBE def2-SVP def2-SVP/J NBO PAL2
|  2> % maxcore 2000
|  3> % output
|  4>     # printlevel mini
|  5>     print[ P_Basis ] 0
|  6>     print[ P_SCFInfo ] 1
|  7>     print[ P_SCFIterInfo ] 1
|  8>     print[ P_OrbEn ] 0
|  9>     print[ P_Cartesian ] 0
| 10> end
| 11> *xyz 0 1
| 12>  C        2.3495420000    -0.6499440000    -1.0489100000
| 13>  N        3.2286130000    -0.1634140000    -0.0079790000
| 14>  C        3.4632120000     1.2563560000    -0.0138770000
| 15>  C        2.4305210000     1.9706350000     0.8579450000
| 16>  O        2.4109980000     1.4046640000     2.1380400000
| 17>  C        4.8564680000     1.5545750000     0.4834650000
| 18>  O        5.7066240000     0.7211490000     0.6309560000
| 19>  H        2.2598320000    -1.7345000000    -0.9713360000
| 20>  H        2.6937360000    -0.4027310000    -2.0650960000
| 21>  H        1.3477130000    -0.2311710000    -0.9256730000
| 22>  H        4.1219860000    -0.6422830000    -0.0094510000
| 23>  H        3.4228710000     1.7004640000    -1.0291400000
| 24>  H        1.4450390000     1.9122070000     0.3740130000
| 25>  H        2.6836970000     3.0308410000     0.9564030000
| 26>  H        2.4983130000     0.4510890000     1.9875680000
| 27>  H        5.0570350000     2.6254740000     0.6919830000
| 28> *
| 29>
| 30>                          ****END OF INPUT****
 Total Charge           Charge          ....    0
 Multiplicity           Mult            ....    1
 Number of Electrons    NEL             ....   56
 Basis Dimension        Dim             ....  143

MULLIKEN ATOMIC CHARGES
-----------------------
   0 C :    0.063493
   1 N :   -0.238339
   2 C :   -0.076541
   3 C :    0.216997
   4 O :   -0.279445
   5 C :    0.125936
   6 O :   -0.158569
   7 H :    0.037064
   8 H :    0.007785
   9 H :    0.024825
  10 H :    0.108317
  11 H :    0.016709
  12 H :   -0.000639
  13 H :    0.010044
  14 H :    0.141162
  15 H :    0.001201
Sum of atomic charges:    0.0000000

LOEWDIN ATOMIC CHARGES
----------------------
   0 C :   -0.002158
   1 N :   -0.081436
   2 C :   -0.059582
   3 C :    0.056354
   4 O :   -0.120145
   5 C :    0.098907
   6 O :   -0.097588
   7 H :    0.028978
   8 H :    0.005738
   9 H :    0.021895
  10 H :    0.050374
  11 H :    0.029429
  12 H :    0.002935
  13 H :    0.018140
  14 H :    0.049541
  15 H :   -0.001382

  Mayer bond orders larger than 0.1
B(  0-C ,  1-N ) :   1.0534 B(  0-C ,  7-H ) :   0.9718 B(  0-C ,  8-H ) :   0.9508
B(  0-C ,  9-H ) :   0.9678 B(  1-N ,  2-C ) :   1.0984 B(  1-N , 10-H ) :   0.9145
B(  1-N , 14-H ) :   0.1017 B(  2-C ,  3-C ) :   1.0208 B(  2-C ,  5-C ) :   0.9055
B(  2-C , 11-H ) :   0.8545 B(  3-C ,  4-O ) :   1.0930 B(  3-C , 12-H ) :   0.9177
B(  3-C , 13-H ) :   0.9312 B(  4-O , 14-H ) :   0.9503 B(  5-C ,  6-O ) :   2.1608
B(  5-C , 15-H ) :   0.9311

FINAL SINGLE POINT ENERGY      -362.310943978854

DIPOLE MOMENT
-------------
                                X             Y             Z
Electronic contribution:      4.95111       0.95652       3.70262
Nuclear contribution   :     -5.35948      -0.91932      -4.71490
                        -----------------------------------------
Total Dipole Moment    :     -0.40837       0.03720      -1.01228
                        -----------------------------------------
Magnitude (a.u.)       :      1.09218
Magnitude (Debye)      :      2.77610

                             ****ORCA TERMINATED NORMALLY****
TOTAL RUN TIME: 0 days 0 hours 0 minutes 6 seconds 660 msec
