                         Program Version 3.0.3 - RELEASE   -
|  1> ! RI PBE def2-SVP def2-SVP/J NBO PAL2
|  2> % maxcore 2000
|  3> % output
|  4>     # printlevel mini
|  5>     print[ P_Basis ] 0
|  6>     print[ P_SCFInfo ] 1
|  7>     print[ P_SCFIterInfo ] 1
|  8>     print[ P_OrbEn ] 0
|  9>     print[ P_Cartesian ] 0
| 10> end
| 11> *xyz 0 1
| 12>  C        1.2417710000    -0.4054100000    -0.0728280000
| 13>  N        2.6878020000    -0.3379390000    -0.0198670000
| 14>  C        3.1921530000     0.0406990000     1.2775140000
| 15>  C        4.6777830000    -0.1694210000     1.4361460000
| 16>  O        5.3093290000     0.4140810000     2.2866370000
| 17>  C        5.3749190000    -1.1689260000     0.5497460000
| 18>  O        6.7135260000    -1.2987790000     0.8984150000
| 19>  H        0.9239070000    -0.6443880000    -1.0889500000
| 20>  H        0.7380240000     0.5234890000     0.2378400000
| 21>  H        0.8913980000    -1.2085280000     0.5809860000
| 22>  H        3.0225100000     0.3095400000    -0.7223990000
| 23>  H        2.7275040000    -0.6132850000     2.0279530000
| 24>  H        2.9608110000     1.0708420000     1.5909890000
| 25>  H        5.2612380000    -0.8482120000    -0.4955250000
| 26>  H        4.8373690000    -2.1250640000     0.6231550000
| 27>  H        6.8486460000    -0.6809990000     1.6342880000
| 28> *
| 29>
| 30>                          ****END OF INPUT****
 Total Charge           Charge          ....    0
 Multiplicity           Mult            ....    1
 Number of Electrons    NEL             ....   56
 Basis Dimension        Dim             ....  143

MULLIKEN ATOMIC CHARGES
-----------------------
   0 C :    0.065810
   1 N :   -0.285583
   2 C :    0.161002
   3 C :   -0.135290
   4 O :   -0.185893
   5 C :    0.232160
   6 O :   -0.264207
   7 H :    0.027640
   8 H :    0.003870
   9 H :    0.027015
  10 H :    0.111940
  11 H :    0.045067
  12 H :    0.012184
  13 H :    0.013218
  14 H :    0.026450
  15 H :    0.144614
Sum of atomic charges:   -0.0000000

LOEWDIN ATOMIC CHARGES
----------------------
   0 C :   -0.002799
   1 N :   -0.100572
   2 C :   -0.012083
   3 C :    0.037827
   4 O :   -0.119961
   5 C :    0.021689
   6 O :   -0.118114
   7 H :    0.026184
   8 H :    0.002741
   9 H :    0.024387
  10 H :    0.058376
  11 H :    0.050796
  12 H :    0.017287
  13 H :    0.028632
  14 H :    0.033680
  15 H :    0.051930

  Mayer bond orders larger than 0.1
B(  0-C ,  1-N ) :   1.0586 B(  0-C ,  7-H ) :   0.9726 B(  0-C ,  8-H ) :   0.9494
B(  0-C ,  9-H ) :   0.9699 B(  1-N ,  2-C ) :   1.0666 B(  1-N , 10-H ) :   0.9448
B(  2-C ,  3-C ) :   0.9566 B(  2-C , 11-H ) :   0.8976 B(  2-C , 12-H ) :   0.9068
B(  3-C ,  4-O ) :   2.0988 B(  3-C ,  5-C ) :   0.9793 B(  4-O , 15-H ) :   0.1034
B(  5-C ,  6-O ) :   1.1466 B(  5-C , 13-H ) :   0.8828 B(  5-C , 14-H ) :   0.9024
B(  6-O , 15-H ) :   0.9448

FINAL SINGLE POINT ENERGY      -362.314804066507

DIPOLE MOMENT
-------------
                                X             Y             Z
Electronic contribution:      7.61917       0.65483       3.08137
Nuclear contribution   :     -8.89541      -0.38657      -3.51742
                        -----------------------------------------
Total Dipole Moment    :     -1.27624       0.26826      -0.43605
                        -----------------------------------------
Magnitude (a.u.)       :      1.37510
Magnitude (Debye)      :      3.49522

                             ****ORCA TERMINATED NORMALLY****
TOTAL RUN TIME: 0 days 0 hours 0 minutes 7 seconds 231 msec
