                         Program Version 3.0.3 - RELEASE   -
|  1> ! RI PBE def2-SVP def2-SVP/J NBO PAL2
|  2> % maxcore 2000
|  3> % output
|  4>     # printlevel mini
|  5>     print[ P_Basis ] 0
|  6>     print[ P_SCFInfo ] 1
|  7>     print[ P_SCFIterInfo ] 1
|  8>     print[ P_OrbEn ] 0
|  9>     print[ P_Cartesian ] 0
| 10> end
| 11> *xyz 0 1
| 12>  C        0.9977120000    -0.1872940000    -0.0978470000
| 13>  N        2.4198450000     0.0124690000     0.0460010000
| 14>  C        3.1535050000    -0.0901460000    -1.1755540000
| 15>  C        4.6099690000    -0.3218100000    -0.9321370000
| 16>  O        5.0769700000    -0.6371860000     0.1335750000
| 17>  C        5.5554160000    -0.1895710000    -2.1231120000
| 18>  O        5.1963940000     0.1267710000    -3.2208100000
| 19>  H        0.5205870000    -0.1309070000     0.8817170000
| 20>  H        0.7257290000    -1.1504050000    -0.5609350000
| 21>  H        0.5715490000     0.6076110000    -0.7164530000
| 22>  H        2.8258090000    -0.5967820000     0.7442200000
| 23>  H        3.0399460000     0.8062910000    -1.7980910000
| 24>  H        2.8334300000    -0.9261480000    -1.8335380000
| 25>  H        6.6101280000    -0.4160810000    -1.8675350000
| 26> *
| 27>
| 28>                          ****END OF INPUT****
 Total Charge           Charge          ....    0
 Multiplicity           Mult            ....    1
 Number of Electrons    NEL             ....   54
 Basis Dimension        Dim             ....  133

MULLIKEN ATOMIC CHARGES
-----------------------
   0 C :    0.068212
   1 N :   -0.255251
   2 C :    0.129543
   3 C :   -0.057147
   4 O :   -0.140265
   5 C :    0.143050
   6 O :   -0.120072
   7 H :    0.026827
   8 H :   -0.000326
   9 H :    0.025000
  10 H :    0.107485
  11 H :    0.042563
  12 H :    0.028770
  13 H :    0.001610
Sum of atomic charges:   -0.0000000

LOEWDIN ATOMIC CHARGES
----------------------
   0 C :   -0.002412
   1 N :   -0.088401
   2 C :   -0.015921
   3 C :    0.010060
   4 O :   -0.084703
   5 C :    0.071697
   6 O :   -0.072854
   7 H :    0.026641
   8 H :    0.000692
   9 H :    0.023257
  10 H :    0.053289
  11 H :    0.044401
  12 H :    0.036059
  13 H :   -0.001805

  Mayer bond orders larger than 0.1
B(  0-C ,  1-N ) :   1.0660 B(  0-C ,  7-H ) :   0.9722 B(  0-C ,  8-H ) :   0.9493
B(  0-C ,  9-H ) :   0.9682 B(  1-N ,  2-C ) :   1.0851 B(  1-N , 10-H ) :   0.9260
B(  2-C ,  3-C ) :   0.9573 B(  2-C , 11-H ) :   0.8986 B(  2-C , 12-H ) :   0.8648
B(  3-C ,  4-O ) :   2.1212 B(  3-C ,  5-C ) :   0.8752 B(  5-C ,  6-O ) :   2.1828
B(  5-C , 13-H ) :   0.9168

FINAL SINGLE POINT ENERGY      -361.108553503215

DIPOLE MOMENT
-------------
                                X             Y             Z
Electronic contribution:      8.57910       0.15884      -2.01315
Nuclear contribution   :     -9.06944      -0.44276       2.03991
                        -----------------------------------------
Total Dipole Moment    :     -0.49034      -0.28392       0.02676
                        -----------------------------------------
Magnitude (a.u.)       :      0.56724
Magnitude (Debye)      :      1.44182

                             ****ORCA TERMINATED NORMALLY****
TOTAL RUN TIME: 0 days 0 hours 0 minutes 6 seconds 696 msec
