                         Program Version 3.0.3 - RELEASE   -
|  1> ! RI PBE def2-SVP def2-SVP/J NBO PAL2
|  2> % maxcore 2000
|  3> % output
|  4>     # printlevel mini
|  5>     print[ P_Basis ] 0
|  6>     print[ P_SCFInfo ] 1
|  7>     print[ P_SCFIterInfo ] 1
|  8>     print[ P_OrbEn ] 0
|  9>     print[ P_Cartesian ] 0
| 10> end
| 11> *xyz 0 1
| 12>  C        0.9429760000     0.1112860000     0.3508840000
| 13>  N        2.3827500000     0.1506180000     0.2398940000
| 14>  C        2.8722690000     1.3788240000    -0.3401980000
| 15>  C        4.3670340000     1.3097660000    -0.5484000000
| 16>  O        4.6318910000     0.2625650000    -1.4593200000
| 17>  C        4.9407150000     2.6084940000    -1.0799290000
| 18>  O        6.3159510000     2.4605720000    -1.3914820000
| 19>  H        0.6284090000    -0.8597670000     0.7380670000
| 20>  H        0.4145600000     0.2908870000    -0.6008730000
| 21>  H        0.6071330000     0.8730890000     1.0609920000
| 22>  H        2.7134240000    -0.6227620000    -0.3241810000
| 23>  H        2.6427480000     2.2067760000     0.3417460000
| 24>  H        2.3956590000     1.6145200000    -1.3099260000
| 25>  H        4.8375070000     1.0830310000     0.4236430000
| 26>  H        5.5313130000     0.3995520000    -1.7788600000
| 27>  H        4.7764310000     3.4237920000    -0.3645890000
| 28>  H        4.4495040000     2.8707210000    -2.0202650000
| 29>  H        6.8110230000     2.4201470000    -0.5685330000
| 30> *
| 31>
| 32>                          ****END OF INPUT****
 Total Charge           Charge          ....    0
 Multiplicity           Mult            ....    1
 Number of Electrons    NEL             ....   58
 Basis Dimension        Dim             ....  153

MULLIKEN ATOMIC CHARGES
-----------------------
   0 C :    0.075742
   1 N :   -0.267958
   2 C :    0.128976
   3 C :    0.028574
   4 O :   -0.270273
   5 C :    0.177885
   6 O :   -0.284494
   7 H :    0.018806
   8 H :   -0.007402
   9 H :    0.013131
  10 H :    0.106953
  11 H :   -0.003020
  12 H :   -0.022557
  13 H :   -0.019093
  14 H :    0.146219
  15 H :    0.006595
  16 H :    0.012718
  17 H :    0.159198
Sum of atomic charges:    0.0000000

LOEWDIN ATOMIC CHARGES
----------------------
   0 C :   -0.006089
   1 N :   -0.103484
   2 C :    0.006453
   3 C :    0.015799
   4 O :   -0.116564
   5 C :    0.041926
   6 O :   -0.114865
   7 H :    0.022305
   8 H :   -0.002482
   9 H :    0.018633
  10 H :    0.054691
  11 H :    0.019617
  12 H :   -0.001161
  13 H :    0.002655
  14 H :    0.056953
  15 H :    0.010738
  16 H :    0.022448
  17 H :    0.072429

  Mayer bond orders larger than 0.1
B(  0-C ,  1-N ) :   1.0664 B(  0-C ,  7-H ) :   0.9729 B(  0-C ,  8-H ) :   0.9437
B(  0-C ,  9-H ) :   0.9681 B(  1-N ,  2-C ) :   1.0667 B(  1-N , 10-H ) :   0.9372
B(  2-C ,  3-C ) :   1.0430 B(  2-C , 11-H ) :   0.9240 B(  2-C , 12-H ) :   0.8925
B(  3-C ,  4-O ) :   1.0753 B(  3-C ,  5-C ) :   1.0402 B(  3-C , 13-H ) :   0.8837
B(  4-O , 14-H ) :   0.9564 B(  5-C ,  6-O ) :   1.0389 B(  5-C , 15-H ) :   0.9351
B(  5-C , 16-H ) :   0.9178 B(  6-O , 17-H ) :   0.9819

FINAL SINGLE POINT ENERGY      -363.506388327524

DIPOLE MOMENT
-------------
                                X             Y             Z
Electronic contribution:      6.06605      -0.25740      -2.02111
Nuclear contribution   :     -5.84836       0.63725       2.34052
                        -----------------------------------------
Total Dipole Moment    :      0.21769       0.37985       0.31941
                        -----------------------------------------
Magnitude (a.u.)       :      0.54194
Magnitude (Debye)      :      1.37751

                             ****ORCA TERMINATED NORMALLY****
TOTAL RUN TIME: 0 days 0 hours 0 minutes 7 seconds 207 msec
