                         Program Version 3.0.3 - RELEASE   -
|  1> ! RI PBE def2-SVP def2-SVP/J NBO PAL2
|  2> % maxcore 2000
|  3> % output
|  4>     # printlevel mini
|  5>     print[ P_Basis ] 0
|  6>     print[ P_SCFInfo ] 1
|  7>     print[ P_SCFIterInfo ] 1
|  8>     print[ P_OrbEn ] 0
|  9>     print[ P_Cartesian ] 0
| 10> end
| 11> *xyz 0 1
| 12>  C        1.1501270000     0.0680720000     0.3536600000
| 13>  N        2.5928120000     0.0894820000     0.2591000000
| 14>  C        3.0920770000     1.2051510000    -0.5049500000
| 15>  C        4.6014550000     1.0862470000    -0.6589010000
| 16>  O        4.9438140000    -0.0785610000    -1.3480610000
| 17>  C        5.1640930000     2.2947570000    -1.3490770000
| 18>  O        5.8207040000     2.2052080000    -2.3529220000
| 19>  H        0.8309810000    -0.8273950000     0.8897650000
| 20>  H        0.6372630000     0.0878590000    -0.6223010000
| 21>  H        0.8055890000     0.9347970000     0.9251760000
| 22>  H        2.9293610000    -0.7663050000    -0.1659950000
| 23>  H        2.8537200000     2.1352220000     0.0261060000
| 24>  H        2.6418050000     1.2776400000    -1.5123620000
| 25>  H        5.0344170000     1.0659030000     0.3561780000
| 26>  H        5.4754400000     0.2050400000    -2.1074140000
| 27>  H        4.9464410000     3.2766720000    -0.8852030000
| 28> *
| 29>
| 30>                          ****END OF INPUT****
 Total Charge           Charge          ....    0
 Multiplicity           Mult            ....    1
 Number of Electrons    NEL             ....   56
 Basis Dimension        Dim             ....  143

MULLIKEN ATOMIC CHARGES
-----------------------
   0 C :    0.071407
   1 N :   -0.268839
   2 C :    0.115686
   3 C :    0.072612
   4 O :   -0.247337
   5 C :    0.113754
   6 O :   -0.175630
   7 H :    0.026012
   8 H :   -0.002935
   9 H :    0.017131
  10 H :    0.109584
  11 H :    0.002300
  12 H :   -0.013883
  13 H :    0.025778
  14 H :    0.148298
  15 H :    0.006062
Sum of atomic charges:   -0.0000000

LOEWDIN ATOMIC CHARGES
----------------------
   0 C :   -0.004871
   1 N :   -0.102987
   2 C :    0.009277
   3 C :   -0.002776
   4 O :   -0.104515
   5 C :    0.089607
   6 O :   -0.100775
   7 H :    0.025179
   8 H :    0.000133
   9 H :    0.020326
  10 H :    0.056858
  11 H :    0.020298
  12 H :    0.000432
  13 H :    0.035394
  14 H :    0.057886
  15 H :    0.000536

  Mayer bond orders larger than 0.1
B(  0-C ,  1-N ) :   1.0620 B(  0-C ,  7-H ) :   0.9732 B(  0-C ,  8-H ) :   0.9454
B(  0-C ,  9-H ) :   0.9688 B(  1-N ,  2-C ) :   1.0618 B(  1-N , 10-H ) :   0.9343
B(  2-C ,  3-C ) :   1.0056 B(  2-C , 11-H ) :   0.9201 B(  2-C , 12-H ) :   0.8978
B(  3-C ,  4-O ) :   1.1632 B(  3-C ,  5-C ) :   0.9395 B(  3-C , 13-H ) :   0.8659
B(  4-O , 14-H ) :   0.9415 B(  5-C ,  6-O ) :   2.1158 B(  5-C , 15-H ) :   0.9264
B(  6-O , 14-H ) :   0.1013

FINAL SINGLE POINT ENERGY      -362.310356258942

DIPOLE MOMENT
-------------
                                X             Y             Z
Electronic contribution:      7.95989       1.44524      -3.74756
Nuclear contribution   :     -8.43578      -1.14473       4.00109
                        -----------------------------------------
Total Dipole Moment    :     -0.47589       0.30052       0.25353
                        -----------------------------------------
Magnitude (a.u.)       :      0.61730
Magnitude (Debye)      :      1.56905

                             ****ORCA TERMINATED NORMALLY****
TOTAL RUN TIME: 0 days 0 hours 0 minutes 7 seconds 458 msec
