                         Program Version 3.0.3 - RELEASE   -
|  1> ! RI PBE def2-SVP def2-SVP/J NBO PAL2
|  2> % maxcore 2000
|  3> % output
|  4>     # printlevel mini
|  5>     print[ P_Basis ] 0
|  6>     print[ P_SCFInfo ] 1
|  7>     print[ P_SCFIterInfo ] 1
|  8>     print[ P_OrbEn ] 0
|  9>     print[ P_Cartesian ] 0
| 10> end
| 11> *xyz 0 1
| 12>  C        0.8649600000    -0.7067320000     0.0248010000
| 13>  N        2.2644420000    -0.3458800000    -0.0222500000
| 14>  C        2.7897070000     0.0514400000     1.2639240000
| 15>  C        4.2354240000     0.4685400000     1.1628170000
| 16>  O        4.3734060000     1.6378250000     0.3341650000
| 17>  C        4.3891110000     2.8174980000     0.9524290000
| 18>  O        4.3045400000     3.0055100000     2.1303640000
| 19>  H        0.5103310000    -0.9406660000    -0.9806090000
| 20>  H        0.2138180000     0.0761530000     0.4480610000
| 21>  H        0.7383290000    -1.6049450000     0.6359580000
| 22>  H        2.4058770000     0.4049840000    -0.6865160000
| 23>  H        2.7397450000    -0.8084220000     1.9424420000
| 24>  H        2.2116270000     0.8619210000     1.7415270000
| 25>  H        4.8192000000    -0.3030280000     0.6604580000
| 26>  H        4.6494240000     0.6792100000     2.1489300000
| 27>  H        4.5007680000     3.6128230000     0.2004810000
| 28> *
| 29>
| 30>                          ****END OF INPUT****
 Total Charge           Charge          ....    0
 Multiplicity           Mult            ....    1
 Number of Electrons    NEL             ....   56
 Basis Dimension        Dim             ....  143

MULLIKEN ATOMIC CHARGES
-----------------------
   0 C :    0.071366
   1 N :   -0.276479
   2 C :    0.064627
   3 C :    0.159402
   4 O :   -0.256047
   5 C :    0.204689
   6 O :   -0.203075
   7 H :    0.023587
   8 H :   -0.001989
   9 H :    0.016972
  10 H :    0.102603
  11 H :    0.021194
  12 H :    0.001063
  13 H :    0.029364
  14 H :    0.033935
  15 H :    0.008788
Sum of atomic charges:   -0.0000000

LOEWDIN ATOMIC CHARGES
----------------------
   0 C :   -0.005842
   1 N :   -0.106797
   2 C :   -0.001792
   3 C :    0.069376
   4 O :   -0.063552
   5 C :    0.069795
   6 O :   -0.141677
   7 H :    0.024214
   8 H :   -0.000225
   9 H :    0.021199
  10 H :    0.051652
  11 H :    0.030898
  12 H :    0.005770
  13 H :    0.027897
  14 H :    0.023006
  15 H :   -0.003921

  Mayer bond orders larger than 0.1
B(  0-C ,  1-N ) :   1.0647 B(  0-C ,  7-H ) :   0.9724 B(  0-C ,  8-H ) :   0.9452
B(  0-C ,  9-H ) :   0.9683 B(  1-N ,  2-C ) :   1.0477 B(  1-N , 10-H ) :   0.9441
B(  2-C ,  3-C ) :   1.1053 B(  2-C , 11-H ) :   0.9272 B(  2-C , 12-H ) :   0.9066
B(  3-C ,  4-O ) :   0.9129 B(  3-C , 13-H ) :   0.9330 B(  3-C , 14-H ) :   0.9249
B(  4-O ,  5-C ) :   1.2008 B(  4-O ,  6-O ) :   0.1059 B(  5-C ,  6-O ) :   2.0409
B(  5-C , 15-H ) :   0.9335

FINAL SINGLE POINT ENERGY      -362.330306297688

DIPOLE MOMENT
-------------
                                X             Y             Z
Electronic contribution:      6.28438       6.26411       0.89745
Nuclear contribution   :     -6.51731      -6.54915      -1.31511
                        -----------------------------------------
Total Dipole Moment    :     -0.23294      -0.28504      -0.41766
                        -----------------------------------------
Magnitude (a.u.)       :      0.55673
Magnitude (Debye)      :      1.41510

                             ****ORCA TERMINATED NORMALLY****
TOTAL RUN TIME: 0 days 0 hours 0 minutes 7 seconds 384 msec
