                         Program Version 3.0.3 - RELEASE   -
|  1> ! RI PBE def2-SVP def2-SVP/J NBO PAL2
|  2> % maxcore 2000
|  3> % output
|  4>     # printlevel mini
|  5>     print[ P_Basis ] 0
|  6>     print[ P_SCFInfo ] 1
|  7>     print[ P_SCFIterInfo ] 1
|  8>     print[ P_OrbEn ] 0
|  9>     print[ P_Cartesian ] 0
| 10> end
| 11> *xyz 0 1
| 12>  C        2.1708990000     0.4756910000    -0.7982200000
| 13>  N        1.6348340000    -0.0652700000     0.4290080000
| 14>  C        1.1038070000    -1.4000140000     0.4016090000
| 15>  C       -0.1978060000    -1.5313960000     1.1664720000
| 16>  O       -0.6301490000    -2.5747480000     1.5658010000
| 17>  N        2.2702850000     0.3758510000     1.5266290000
| 18>  C        2.2059310000    -0.2589670000     2.6298390000
| 19>  H        3.0683170000    -0.0594500000    -1.1387260000
| 20>  H        2.4356630000     1.5166710000    -0.6221920000
| 21>  H        1.4148170000     0.4292210000    -1.5841490000
| 22>  H        1.8148180000    -2.1583350000     0.7632630000
| 23>  H        0.8668360000    -1.6493640000    -0.6376510000
| 24>  H       -0.7506830000    -0.5760370000     1.2964020000
| 25>  H        2.7115990000     0.1890190000     3.4767920000
| 26>  H        1.6766330000    -1.1983820000     2.7889230000
| 27> *
| 28>
| 29>                          ****END OF INPUT****
 Total Charge           Charge          ....    0
 Multiplicity           Mult            ....    1
 Number of Electrons    NEL             ....   54
 Basis Dimension        Dim             ....  138

MULLIKEN ATOMIC CHARGES
-----------------------
   0 C :    0.112152
   1 N :   -0.245827
   2 C :    0.099637
   3 C :    0.077547
   4 O :   -0.152612
   5 N :   -0.063318
   6 C :   -0.081206
   7 H :    0.019702
   8 H :    0.041657
   9 H :    0.029455
  10 H :    0.034211
  11 H :    0.051872
  12 H :    0.005452
  13 H :    0.039009
  14 H :    0.032269
Sum of atomic charges:   -0.0000000

LOEWDIN ATOMIC CHARGES
----------------------
   0 C :    0.008626
   1 N :   -0.016136
   2 C :   -0.032283
   3 C :    0.081346
   4 O :   -0.099126
   5 N :   -0.025756
   6 C :   -0.084875
   7 H :    0.013911
   8 H :    0.033937
   9 H :    0.023335
  10 H :    0.029496
  11 H :    0.055203
  12 H :   -0.007155
  13 H :    0.021012
  14 H :   -0.001534

  Mayer bond orders larger than 0.1
B(  0-C ,  1-N ) :   1.0056 B(  0-C ,  7-H ) :   0.9579 B(  0-C ,  8-H ) :   0.9625
B(  0-C ,  9-H ) :   0.9649 B(  1-N ,  2-C ) :   0.9756 B(  1-N ,  5-N ) :   1.1079
B(  1-N ,  6-C ) :   0.1343 B(  2-C ,  3-C ) :   0.9375 B(  2-C , 10-H ) :   0.9001
B(  2-C , 11-H ) :   0.9068 B(  3-C ,  4-O ) :   2.1743 B(  3-C , 12-H ) :   0.9275
B(  5-N ,  6-C ) :   1.8683 B(  6-C , 13-H ) :   0.9538 B(  6-C , 14-H ) :   0.9146

FINAL SINGLE POINT ENERGY      -341.230616889438

DIPOLE MOMENT
-------------
                                X             Y             Z
Electronic contribution:     -3.02705      -1.96898       2.45760
Nuclear contribution   :      3.29892       2.16370      -3.23761
                        -----------------------------------------
Total Dipole Moment    :      0.27187       0.19472      -0.78001
                        -----------------------------------------
Magnitude (a.u.)       :      0.84868
Magnitude (Debye)      :      2.15717

                             ****ORCA TERMINATED NORMALLY****
TOTAL RUN TIME: 0 days 0 hours 0 minutes 6 seconds 973 msec
