                         Program Version 3.0.3 - RELEASE   -
|  1> ! RI PBE def2-SVP def2-SVP/J NBO PAL2
|  2> % maxcore 2000
|  3> % output
|  4>     # printlevel mini
|  5>     print[ P_Basis ] 0
|  6>     print[ P_SCFInfo ] 1
|  7>     print[ P_SCFIterInfo ] 1
|  8>     print[ P_OrbEn ] 0
|  9>     print[ P_Cartesian ] 0
| 10> end
| 11> *xyz 0 1
| 12>  C        1.7233250000    -0.6399540000     0.1543330000
| 13>  N        2.9556210000     0.0953960000     0.2512540000
| 14>  C        2.9733600000     1.2622820000     1.1184270000
| 15>  C        4.3722710000     1.7832200000     1.3910660000
| 16>  O        4.9443610000     2.4609070000     0.3038950000
| 17>  N        3.7455590000     0.1962680000    -0.8235410000
| 18>  C        3.5796160000    -0.5376030000    -1.8544180000
| 19>  H        1.1930380000    -0.5630400000     1.1020120000
| 20>  H        1.9187360000    -1.6983670000    -0.0403480000
| 21>  H        1.0743980000    -0.2578520000    -0.6490050000
| 22>  H        2.5205400000     0.9612120000     2.0671440000
| 23>  H        2.3645960000     2.0783880000     0.6989490000
| 24>  H        5.0027570000     0.9454300000     1.7238670000
| 25>  H        4.3125760000     2.4994300000     2.2151210000
| 26>  H        4.8842030000     1.8367880000    -0.4340980000
| 27>  H        4.2948020000    -0.4177240000    -2.6587260000
| 28>  H        2.7898600000    -1.2770800000    -1.9668510000
| 29> *
| 30>
| 31>                          ****END OF INPUT****
 Total Charge           Charge          ....    0
 Multiplicity           Mult            ....    1
 Number of Electrons    NEL             ....   56
 Basis Dimension        Dim             ....  148

MULLIKEN ATOMIC CHARGES
-----------------------
   0 C :    0.081142
   1 N :   -0.231548
   2 C :    0.073730
   3 C :    0.175055
   4 O :   -0.287028
   5 N :   -0.087455
   6 C :   -0.062355
   7 H :    0.033628
   8 H :    0.048638
   9 H :    0.025744
  10 H :    0.009309
  11 H :    0.017935
  12 H :   -0.002825
  13 H :    0.011514
  14 H :    0.141576
  15 H :    0.038096
  16 H :    0.014841
Sum of atomic charges:   -0.0000000

LOEWDIN ATOMIC CHARGES
----------------------
   0 C :   -0.004282
   1 N :   -0.010933
   2 C :   -0.001465
   3 C :    0.045685
   4 O :   -0.129484
   5 N :   -0.018694
   6 C :   -0.083769
   7 H :    0.033080
   8 H :    0.029605
   9 H :    0.018901
  10 H :    0.025793
  11 H :    0.014676
  12 H :    0.005830
  13 H :    0.023993
  14 H :    0.034312
  15 H :    0.019538
  16 H :   -0.002786

  Mayer bond orders larger than 0.1
B(  0-C ,  1-N ) :   1.0189 B(  0-C ,  7-H ) :   0.9559 B(  0-C ,  8-H ) :   0.9531
B(  0-C ,  9-H ) :   0.9409 B(  1-N ,  2-C ) :   0.9870 B(  1-N ,  5-N ) :   1.1287
B(  1-N ,  6-C ) :   0.1523 B(  2-C ,  3-C ) :   1.0879 B(  2-C , 10-H ) :   0.9220
B(  2-C , 11-H ) :   0.9187 B(  3-C ,  4-O ) :   1.0967 B(  3-C , 12-H ) :   0.9205
B(  3-C , 13-H ) :   0.9347 B(  4-O , 14-H ) :   0.9547 B(  5-N ,  6-C ) :   1.8347
B(  5-N , 14-H ) :   0.1088 B(  6-C , 15-H ) :   0.9551 B(  6-C , 16-H ) :   0.9253

FINAL SINGLE POINT ENERGY      -342.438028458613

DIPOLE MOMENT
-------------
                                X             Y             Z
Electronic contribution:      3.12835       1.69648      -0.97235
Nuclear contribution   :     -4.15426      -2.55932       1.13615
                        -----------------------------------------
Total Dipole Moment    :     -1.02591      -0.86283       0.16380
                        -----------------------------------------
Magnitude (a.u.)       :      1.35048
Magnitude (Debye)      :      3.43266

                             ****ORCA TERMINATED NORMALLY****
TOTAL RUN TIME: 0 days 0 hours 0 minutes 7 seconds 527 msec
