                         Program Version 3.0.3 - RELEASE   -
|  1> ! RI PBE def2-SVP def2-SVP/J NBO PAL2
|  2> % maxcore 2000
|  3> % output
|  4>     # printlevel mini
|  5>     print[ P_Basis ] 0
|  6>     print[ P_SCFInfo ] 1
|  7>     print[ P_SCFIterInfo ] 1
|  8>     print[ P_OrbEn ] 0
|  9>     print[ P_Cartesian ] 0
| 10> end
| 11> *xyz 0 1
| 12>  C        1.5256870000     0.8781230000    -0.6171820000
| 13>  N        1.7587140000    -0.1952810000    -1.5386970000
| 14>  C        3.0008740000    -0.5416840000    -1.9393430000
| 15>  C        2.9967180000    -1.6932560000    -2.9057120000
| 16>  O        1.9854010000    -2.2340810000    -3.2703940000
| 17>  N        4.0405850000     0.0702120000    -1.5177820000
| 18>  C        5.3649360000    -0.3081650000    -1.9526260000
| 19>  H        0.4543900000     0.9719880000    -0.4434430000
| 20>  H        1.9105530000     1.8242630000    -1.0097230000
| 21>  H        2.0298780000     0.6944230000     0.3364580000
| 22>  H        1.0000790000    -0.7318070000    -1.9221620000
| 23>  H        3.9842540000    -2.0230540000    -3.2700870000
| 24>  H        6.0864310000     0.3485390000    -1.4643960000
| 25>  H        5.5151790000    -0.1968040000    -3.0336210000
| 26>  H        5.6348200000    -1.3356070000    -1.6786810000
| 27> *
| 28>
| 29>                          ****END OF INPUT****
 Total Charge           Charge          ....    0
 Multiplicity           Mult            ....    1
 Number of Electrons    NEL             ....   54
 Basis Dimension        Dim             ....  138

MULLIKEN ATOMIC CHARGES
-----------------------
   0 C :    0.107404
   1 N :   -0.112216
   2 C :   -0.092405
   3 C :    0.147875
   4 O :   -0.149673
   5 N :   -0.213335
   6 C :    0.071473
   7 H :    0.021167
   8 H :    0.029641
   9 H :    0.031449
  10 H :    0.106679
  11 H :   -0.011822
  12 H :    0.026318
  13 H :    0.019816
  14 H :    0.017629
Sum of atomic charges:   -0.0000000

LOEWDIN ATOMIC CHARGES
----------------------
   0 C :    0.013809
   1 N :    0.016007
   2 C :   -0.055648
   3 C :    0.083117
   4 O :   -0.096506
   5 N :   -0.148563
   6 C :   -0.018179
   7 H :    0.026922
   8 H :    0.026604
   9 H :    0.027042
  10 H :    0.067413
  11 H :    0.001031
  12 H :    0.023890
  13 H :    0.016636
  14 H :    0.016425

  Mayer bond orders larger than 0.1
B(  0-C ,  1-N ) :   1.0318 B(  0-C ,  7-H ) :   0.9687 B(  0-C ,  8-H ) :   0.9598
B(  0-C ,  9-H ) :   0.9600 B(  1-N ,  2-C ) :   1.3018 B(  1-N ,  5-N ) :   0.1185
B(  1-N , 10-H ) :   0.9041 B(  2-C ,  3-C ) :   0.9210 B(  2-C ,  5-N ) :   1.7663
B(  3-C ,  4-O ) :   2.1488 B(  3-C , 11-H ) :   0.9366 B(  5-N ,  6-C ) :   1.0474
B(  6-C , 12-H ) :   0.9714 B(  6-C , 13-H ) :   0.9513 B(  6-C , 14-H ) :   0.9504

FINAL SINGLE POINT ENERGY      -341.273955593817

DIPOLE MOMENT
-------------
                                X             Y             Z
Electronic contribution:     -2.91839      -3.80577      -2.93401
Nuclear contribution   :      2.86946       3.90457       3.02311
                        -----------------------------------------
Total Dipole Moment    :     -0.04893       0.09880       0.08910
                        -----------------------------------------
Magnitude (a.u.)       :      0.14176
Magnitude (Debye)      :      0.36032

                             ****ORCA TERMINATED NORMALLY****
TOTAL RUN TIME: 0 days 0 hours 0 minutes 7 seconds 297 msec
