                         Program Version 3.0.3 - RELEASE   -
|  1> ! RI PBE def2-SVP def2-SVP/J NBO PAL2
|  2> % maxcore 2000
|  3> % output
|  4>     # printlevel mini
|  5>     print[ P_Basis ] 0
|  6>     print[ P_SCFInfo ] 1
|  7>     print[ P_SCFIterInfo ] 1
|  8>     print[ P_OrbEn ] 0
|  9>     print[ P_Cartesian ] 0
| 10> end
| 11> *xyz 0 1
| 12>  C        2.1849710000    -0.3485000000    -0.8147020000
| 13>  N        1.9385150000     0.5442890000     0.2868050000
| 14>  C        2.9375220000     0.8428820000     1.1632810000
| 15>  C        2.4909940000     1.6421150000     2.3719930000
| 16>  O        1.1278670000     2.0041930000     2.3651140000
| 17>  N        4.1374430000     0.4800050000     0.9362150000
| 18>  C        5.1670090000     0.8786340000     1.8630730000
| 19>  H        1.2828470000    -0.4202440000    -1.4228770000
| 20>  H        2.4802040000    -1.3499230000    -0.4810180000
| 21>  H        2.9995530000     0.0397420000    -1.4271890000
| 22>  H        1.0111360000     0.5807570000     0.6760450000
| 23>  H        3.1397050000     2.5205450000     2.4733810000
| 24>  H        2.6460620000     1.0355050000     3.2686590000
| 25>  H        1.0060870000     2.7050510000     1.7192100000
| 26>  H        6.1158130000     0.4383270000     1.5524840000
| 27>  H        4.9786360000     0.5455210000     2.8938430000
| 28>  H        5.3144370000     1.9680120000     1.8966810000
| 29> *
| 30>
| 31>                          ****END OF INPUT****
 Total Charge           Charge          ....    0
 Multiplicity           Mult            ....    1
 Number of Electrons    NEL             ....   56
 Basis Dimension        Dim             ....  148

MULLIKEN ATOMIC CHARGES
-----------------------
   0 C :    0.095038
   1 N :   -0.132956
   2 C :   -0.165798
   3 C :    0.227000
   4 O :   -0.280656
   5 N :   -0.232085
   6 C :    0.075241
   7 H :    0.016182
   8 H :    0.022227
   9 H :    0.033567
  10 H :    0.099816
  11 H :    0.022998
  12 H :    0.035938
  13 H :    0.158674
  14 H :    0.019036
  15 H :   -0.000118
  16 H :    0.005894
Sum of atomic charges:    0.0000000

LOEWDIN ATOMIC CHARGES
----------------------
   0 C :    0.008074
   1 N :   -0.011636
   2 C :   -0.028494
   3 C :    0.038708
   4 O :   -0.107445
   5 N :   -0.180144
   6 C :   -0.016950
   7 H :    0.021949
   8 H :    0.018575
   9 H :    0.029699
  10 H :    0.057816
  11 H :    0.021399
  12 H :    0.036505
  13 H :    0.072122
  14 H :    0.019845
  15 H :    0.009103
  16 H :    0.010872

  Mayer bond orders larger than 0.1
B(  0-C ,  1-N ) :   1.0357 B(  0-C ,  7-H ) :   0.9684 B(  0-C ,  8-H ) :   0.9617
B(  0-C ,  9-H ) :   0.9607 B(  1-N ,  2-C ) :   1.2613 B(  1-N , 10-H ) :   0.9018
B(  2-C ,  3-C ) :   0.9550 B(  2-C ,  5-N ) :   1.8239 B(  3-C ,  4-O ) :   1.0551
B(  3-C , 11-H ) :   0.9326 B(  3-C , 12-H ) :   0.9193 B(  4-O , 13-H ) :   0.9796
B(  5-N ,  6-C ) :   1.0646 B(  6-C , 14-H ) :   0.9719 B(  6-C , 15-H ) :   0.9448
B(  6-C , 16-H ) :   0.9473

FINAL SINGLE POINT ENERGY      -342.471747523334

DIPOLE MOMENT
-------------
                                X             Y             Z
Electronic contribution:     -3.13006       1.22299       0.67060
Nuclear contribution   :      2.59385      -0.75912      -0.66755
                        -----------------------------------------
Total Dipole Moment    :     -0.53621       0.46387       0.00305
                        -----------------------------------------
Magnitude (a.u.)       :      0.70902
Magnitude (Debye)      :      1.80219

                             ****ORCA TERMINATED NORMALLY****
TOTAL RUN TIME: 0 days 0 hours 0 minutes 7 seconds 691 msec
