                         Program Version 3.0.3 - RELEASE   -
|  1> ! RI PBE def2-SVP def2-SVP/J NBO PAL2
|  2> % maxcore 2000
|  3> % output
|  4>     # printlevel mini
|  5>     print[ P_Basis ] 0
|  6>     print[ P_SCFInfo ] 1
|  7>     print[ P_SCFIterInfo ] 1
|  8>     print[ P_OrbEn ] 0
|  9>     print[ P_Cartesian ] 0
| 10> end
| 11> *xyz 0 1
| 12>  C        0.9246420000     0.1359890000     0.0588510000
| 13>  N        2.3600790000    -0.0670770000     0.0655960000
| 14>  C        2.9888140000     0.2133650000    -1.2092500000
| 15>  C        4.5005760000     0.3681460000    -1.1315410000
| 16>  O        5.1905150000     0.2947380000    -2.1307030000
| 17>  N        4.9671470000     0.6133440000     0.1087420000
| 18>  C        6.3567720000     0.8495550000     0.3889650000
| 19>  H        0.5095280000    -0.1422120000     1.0292890000
| 20>  H        0.3975630000    -0.4369400000    -0.7192430000
| 21>  H        0.7086100000     1.1949330000    -0.1038260000
| 22>  H        2.5635310000    -1.0219180000     0.3357730000
| 23>  H        2.6021690000     1.1686580000    -1.5811990000
| 24>  H        2.7832360000    -0.5287720000    -1.9926980000
| 25>  H        4.2648650000     0.6775310000     0.8310780000
| 26>  H        6.9138080000     0.6902650000    -0.5336120000
| 27>  H        6.7280920000     0.1610510000     1.1525100000
| 28>  H        6.5290520000     1.8746640000     0.7297570000
| 29> *
| 30>
| 31>                          ****END OF INPUT****
 Total Charge           Charge          ....    0
 Multiplicity           Mult            ....    1
 Number of Electrons    NEL             ....   56
 Basis Dimension        Dim             ....  148

MULLIKEN ATOMIC CHARGES
-----------------------
   0 C :    0.070441
   1 N :   -0.295046
   2 C :    0.132435
   3 C :   -0.038429
   4 O :   -0.226441
   5 N :   -0.137129
   6 C :    0.076239
   7 H :    0.022700
   8 H :    0.006839
   9 H :    0.025399
  10 H :    0.109319
  11 H :    0.033323
  12 H :    0.018502
  13 H :    0.098895
  14 H :    0.045160
  15 H :    0.028975
  16 H :    0.028817
Sum of atomic charges:    0.0000000

LOEWDIN ATOMIC CHARGES
----------------------
   0 C :   -0.002739
   1 N :   -0.099003
   2 C :   -0.013453
   3 C :    0.005570
   4 O :   -0.204719
   5 N :    0.000068
   6 C :    0.008573
   7 H :    0.023554
   8 H :    0.004818
   9 H :    0.023837
  10 H :    0.058479
  11 H :    0.040598
  12 H :    0.019835
  13 H :    0.055434
  14 H :    0.033842
  15 H :    0.022706
  16 H :    0.022599

  Mayer bond orders larger than 0.1
B(  0-C ,  1-N ) :   1.0538 B(  0-C ,  7-H ) :   0.9728 B(  0-C ,  8-H ) :   0.9514
B(  0-C ,  9-H ) :   0.9704 B(  1-N ,  2-C ) :   1.0172 B(  1-N , 10-H ) :   0.9454
B(  1-N , 13-H ) :   0.1034 B(  2-C ,  3-C ) :   0.9481 B(  2-C , 11-H ) :   0.9143
B(  2-C , 12-H ) :   0.9151 B(  3-C ,  4-O ) :   2.0565 B(  3-C ,  5-N ) :   1.2752
B(  4-O ,  5-N ) :   0.1062 B(  5-N ,  6-C ) :   1.0090 B(  5-N , 13-H ) :   0.8886
B(  6-C , 14-H ) :   0.9507 B(  6-C , 15-H ) :   0.9717 B(  6-C , 16-H ) :   0.9707

FINAL SINGLE POINT ENERGY      -342.505479879900

DIPOLE MOMENT
-------------
                                X             Y             Z
Electronic contribution:      3.78907      -0.31983      -3.07314
Nuclear contribution   :     -4.58424       0.20933       4.25822
                        -----------------------------------------
Total Dipole Moment    :     -0.79517      -0.11050       1.18508
                        -----------------------------------------
Magnitude (a.u.)       :      1.43141
Magnitude (Debye)      :      3.63834

                             ****ORCA TERMINATED NORMALLY****
TOTAL RUN TIME: 0 days 0 hours 0 minutes 6 seconds 608 msec
