                         Program Version 3.0.3 - RELEASE   -
|  1> ! RI PBE def2-SVP def2-SVP/J NBO PAL2
|  2> % maxcore 2000
|  3> % output
|  4>     # printlevel mini
|  5>     print[ P_Basis ] 0
|  6>     print[ P_SCFInfo ] 1
|  7>     print[ P_SCFIterInfo ] 1
|  8>     print[ P_OrbEn ] 0
|  9>     print[ P_Cartesian ] 0
| 10> end
| 11> *xyz 0 1
| 12>  C        0.7792720000    -0.1045450000    -0.0730380000
| 13>  N        2.1892320000    -0.2320190000     0.2224300000
| 14>  C        2.7661880000     0.9766740000     0.7664780000
| 15>  C        4.2182740000     0.7437900000     1.1140920000
| 16>  O        4.7341970000     1.9673360000     1.6108980000
| 17>  N        6.0610980000     1.8222760000     1.9208890000
| 18>  C        6.5611680000     2.8863320000     2.3867410000
| 19>  H        0.4144020000    -1.0247060000    -0.5332800000
| 20>  H        0.5352510000     0.7373160000    -0.7422610000
| 21>  H        0.2231600000     0.0421700000     0.8569400000
| 22>  H        2.6898310000    -0.4997560000    -0.6162080000
| 23>  H        2.2186930000     1.2413370000     1.6771230000
| 24>  H        2.6888220000     1.8441990000     0.0881150000
| 25>  H        4.7889080000     0.4394560000     0.2281810000
| 26>  H        4.3119000000    -0.0419310000     1.8691270000
| 27>  H        7.6099860000     2.8514380000     2.6544790000
| 28>  H        5.9838070000     3.8003400000     2.5193960000
| 29> *
| 30>
| 31>                          ****END OF INPUT****
 Total Charge           Charge          ....    0
 Multiplicity           Mult            ....    1
 Number of Electrons    NEL             ....   56
 Basis Dimension        Dim             ....  148

MULLIKEN ATOMIC CHARGES
-----------------------
   0 C :    0.065005
   1 N :   -0.284861
   2 C :    0.081324
   3 C :    0.195141
   4 O :   -0.287237
   5 N :   -0.006912
   6 C :   -0.023631
   7 H :    0.023974
   8 H :   -0.002584
   9 H :    0.021851
  10 H :    0.102099
  11 H :    0.013525
  12 H :   -0.002483
  13 H :    0.001890
  14 H :    0.019729
  15 H :    0.053300
  16 H :    0.029870
Sum of atomic charges:    0.0000000

LOEWDIN ATOMIC CHARGES
----------------------
   0 C :   -0.005981
   1 N :   -0.104401
   2 C :    0.001014
   3 C :    0.050851
   4 O :   -0.083277
   5 N :    0.011642
   6 C :   -0.048976
   7 H :    0.023596
   8 H :   -0.000717
   9 H :    0.022713
  10 H :    0.054019
  11 H :    0.023948
  12 H :    0.000815
  13 H :    0.007776
  14 H :    0.014265
  15 H :    0.027197
  16 H :    0.005515

  Mayer bond orders larger than 0.1
B(  0-C ,  1-N ) :   1.0643 B(  0-C ,  7-H ) :   0.9734 B(  0-C ,  8-H ) :   0.9457
B(  0-C ,  9-H ) :   0.9687 B(  1-N ,  2-C ) :   1.0292 B(  1-N , 10-H ) :   0.9453
B(  2-C ,  3-C ) :   1.0647 B(  2-C , 11-H ) :   0.9258 B(  2-C , 12-H ) :   0.9176
B(  3-C ,  4-O ) :   0.9534 B(  3-C , 13-H ) :   0.9402 B(  3-C , 14-H ) :   0.9410
B(  4-O ,  5-N ) :   0.9752 B(  4-O ,  6-C ) :   0.1220 B(  5-N ,  6-C ) :   1.9412
B(  6-C , 15-H ) :   0.9525 B(  6-C , 16-H ) :   0.9326

FINAL SINGLE POINT ENERGY      -342.405432293159

DIPOLE MOMENT
-------------
                                X             Y             Z
Electronic contribution:      6.56983       2.14771       2.66809
Nuclear contribution   :     -6.75461      -1.95622      -2.97954
                        -----------------------------------------
Total Dipole Moment    :     -0.18478       0.19148      -0.31145
                        -----------------------------------------
Magnitude (a.u.)       :      0.40965
Magnitude (Debye)      :      1.04124

                             ****ORCA TERMINATED NORMALLY****
TOTAL RUN TIME: 0 days 0 hours 0 minutes 7 seconds 153 msec
