                         Program Version 3.0.3 - RELEASE   -
|  1> ! RI PBE def2-SVP def2-SVP/J NBO PAL2
|  2> % maxcore 2000
|  3> % output
|  4>     # printlevel mini
|  5>     print[ P_Basis ] 0
|  6>     print[ P_SCFInfo ] 1
|  7>     print[ P_SCFIterInfo ] 1
|  8>     print[ P_OrbEn ] 0
|  9>     print[ P_Cartesian ] 0
| 10> end
| 11> *xyz 0 1
| 12>  C        3.0615960000    -0.8170310000    -0.8704130000
| 13>  N        2.4279900000    -0.1573340000     0.2551980000
| 14>  C        3.0097290000     1.1140790000     0.5768570000
| 15>  C        4.3867720000     1.0475740000     1.2131980000
| 16>  O        4.8688970000     0.0601370000     1.7000090000
| 17>  O        4.9864720000     2.2426610000     1.2057290000
| 18>  C        6.2580190000     2.2960630000     1.8470790000
| 19>  H        2.5862770000    -1.7856440000    -1.0345550000
| 20>  H        4.1418050000    -0.9824660000    -0.7473620000
| 21>  H        2.9066850000    -0.2192550000    -1.7731670000
| 22>  H        2.4761450000    -0.7578610000     1.0691570000
| 23>  H        2.3693790000     1.6549270000     1.2842310000
| 24>  H        3.0640160000     1.7409660000    -0.3174940000
| 25>  H        6.5969010000     3.3252480000     1.7522960000
| 26>  H        6.9605270000     1.6167690000     1.3625570000
| 27>  H        6.1695820000     2.0187760000     2.8984680000
| 28> *
| 29>
| 30>                          ****END OF INPUT****
 Total Charge           Charge          ....    0
 Multiplicity           Mult            ....    1
 Number of Electrons    NEL             ....   56
 Basis Dimension        Dim             ....  143

MULLIKEN ATOMIC CHARGES
-----------------------
   0 C :    0.059091
   1 N :   -0.229539
   2 C :    0.092608
   3 C :    0.047868
   4 O :   -0.199417
   5 O :   -0.253267
   6 C :    0.141412
   7 H :    0.021764
   8 H :    0.011095
   9 H :    0.014711
  10 H :    0.102127
  11 H :    0.045190
  12 H :    0.028590
  13 H :    0.038451
  14 H :    0.038992
  15 H :    0.040326
Sum of atomic charges:   -0.0000000

LOEWDIN ATOMIC CHARGES
----------------------
   0 C :   -0.006050
   1 N :   -0.089098
   2 C :   -0.024856
   3 C :    0.021686
   4 O :   -0.153875
   5 O :   -0.067079
   6 C :    0.063522
   7 H :    0.024474
   8 H :    0.001433
   9 H :    0.019614
  10 H :    0.055326
  11 H :    0.043992
  12 H :    0.036773
  13 H :    0.026023
  14 H :    0.024041
  15 H :    0.024075

  Mayer bond orders larger than 0.1
B(  0-C ,  1-N ) :   1.0590 B(  0-C ,  7-H ) :   0.9728 B(  0-C ,  8-H ) :   0.9490
B(  0-C ,  9-H ) :   0.9659 B(  1-N ,  2-C ) :   1.1487 B(  1-N , 10-H ) :   0.9454
B(  2-C ,  3-C ) :   0.9321 B(  2-C , 11-H ) :   0.9150 B(  2-C , 12-H ) :   0.9189
B(  3-C ,  4-O ) :   2.0743 B(  3-C ,  5-O ) :   1.1916 B(  5-O ,  6-C ) :   0.9373
B(  6-C , 13-H ) :   0.9757 B(  6-C , 14-H ) :   0.9695 B(  6-C , 15-H ) :   0.9693

FINAL SINGLE POINT ENERGY      -362.336344680810

DIPOLE MOMENT
-------------
                                X             Y             Z
Electronic contribution:      0.56369       1.25127       2.98792
Nuclear contribution   :     -0.23128      -0.75542      -2.96033
                        -----------------------------------------
Total Dipole Moment    :      0.33241       0.49585       0.02759
                        -----------------------------------------
Magnitude (a.u.)       :      0.59760
Magnitude (Debye)      :      1.51898

                             ****ORCA TERMINATED NORMALLY****
TOTAL RUN TIME: 0 days 0 hours 0 minutes 6 seconds 488 msec
