                         Program Version 3.0.3 - RELEASE   -
|  1> ! RI PBE def2-SVP def2-SVP/J NBO PAL2
|  2> % maxcore 2000
|  3> % output
|  4>     # printlevel mini
|  5>     print[ P_Basis ] 0
|  6>     print[ P_SCFInfo ] 1
|  7>     print[ P_SCFIterInfo ] 1
|  8>     print[ P_OrbEn ] 0
|  9>     print[ P_Cartesian ] 0
| 10> end
| 11> *xyz 0 1
| 12>  C        1.0687670000     0.4019180000    -0.3130790000
| 13>  N        2.4869480000     0.3657050000    -0.5306900000
| 14>  C        3.0414590000    -0.3649610000    -1.5351170000
| 15>  N        2.4574350000    -1.0027740000    -2.4727550000
| 16>  C        4.5346410000    -0.3670400000    -1.5301360000
| 17>  C        5.2919280000     0.8837330000    -1.5170160000
| 18>  O        5.1739430000     0.0916750000    -0.3457090000
| 19>  H        0.8564130000     1.0222220000     0.5568290000
| 20>  H        0.6460030000    -0.5957450000    -0.1385110000
| 21>  H        0.5537850000     0.8434090000    -1.1716990000
| 22>  H        3.1057350000     0.5771740000     0.2359720000
| 23>  H        1.4445250000    -0.9312200000    -2.4081440000
| 24>  H        4.9737080000    -1.2436720000    -1.9952940000
| 25>  H        4.7507880000     1.8257810000    -1.4962270000
| 26>  H        6.2828220000     0.9087050000    -1.9617340000
| 27> *
| 28>
| 29>                          ****END OF INPUT****
 Total Charge           Charge          ....    0
 Multiplicity           Mult            ....    1
 Number of Electrons    NEL             ....   54
 Basis Dimension        Dim             ....  138

MULLIKEN ATOMIC CHARGES
-----------------------
   0 C :    0.060937
   1 N :   -0.128790
   2 C :   -0.135443
   3 N :   -0.101430
   4 C :    0.067409
   5 C :    0.148072
   6 O :   -0.292463
   7 H :    0.029263
   8 H :    0.033145
   9 H :    0.037302
  10 H :    0.114505
  11 H :    0.065988
  12 H :    0.025843
  13 H :    0.033250
  14 H :    0.042413
Sum of atomic charges:    0.0000000

LOEWDIN ATOMIC CHARGES
----------------------
   0 C :    0.001942
   1 N :   -0.016789
   2 C :   -0.018036
   3 N :   -0.173206
   4 C :    0.045511
   5 C :    0.067436
   6 O :   -0.151571
   7 H :    0.032808
   8 H :    0.018741
   9 H :    0.025134
  10 H :    0.066413
  11 H :    0.036717
  12 H :    0.029099
  13 H :    0.015182
  14 H :    0.020618

  Mayer bond orders larger than 0.1
B(  0-C ,  1-N ) :   1.0385 B(  0-C ,  7-H ) :   0.9663 B(  0-C ,  8-H ) :   0.9580
B(  0-C ,  9-H ) :   0.9603 B(  1-N ,  2-C ) :   1.2335 B(  1-N ,  3-N ) :   0.1068
B(  1-N , 10-H ) :   0.8921 B(  2-C ,  3-N ) :   1.9614 B(  2-C ,  4-C ) :   0.9622
B(  3-N , 11-H ) :   0.9299 B(  4-C ,  5-C ) :   1.0644 B(  4-C ,  6-O ) :   0.9785
B(  4-C , 12-H ) :   0.9364 B(  5-C ,  6-O ) :   0.9757 B(  5-C , 13-H ) :   0.9306
B(  5-C , 14-H ) :   0.9449

FINAL SINGLE POINT ENERGY      -341.253664794019

DIPOLE MOMENT
-------------
                                X             Y             Z
Electronic contribution:      4.05002      -1.37513      -0.21954
Nuclear contribution   :     -4.42297       2.13392       0.75625
                        -----------------------------------------
Total Dipole Moment    :     -0.37295       0.75880       0.53671
                        -----------------------------------------
Magnitude (a.u.)       :      1.00146
Magnitude (Debye)      :      2.54551

                             ****ORCA TERMINATED NORMALLY****
TOTAL RUN TIME: 0 days 0 hours 0 minutes 6 seconds 976 msec
