                         Program Version 3.0.3 - RELEASE   -
|  1> ! RI PBE def2-SVP def2-SVP/J NBO PAL2
|  2> % maxcore 2000
|  3> % output
|  4>     # printlevel mini
|  5>     print[ P_Basis ] 0
|  6>     print[ P_SCFInfo ] 1
|  7>     print[ P_SCFIterInfo ] 1
|  8>     print[ P_OrbEn ] 0
|  9>     print[ P_Cartesian ] 0
| 10> end
| 11> *xyz 0 1
| 12>  C        0.4576040000    -1.0595620000     0.7815950000
| 13>  N        1.6562590000    -1.4165020000     0.0715020000
| 14>  C        2.6971660000    -0.7132010000     0.2608680000
| 15>  N        3.8904590000    -0.9418370000    -0.3331330000
| 16>  C        4.0999750000    -1.8536450000    -1.4448700000
| 17>  C        3.8553890000    -3.3278250000    -1.1362540000
| 18>  O        2.5136440000    -3.7054290000    -1.2118640000
| 19>  H        0.5869380000    -0.1840550000     1.4342460000
| 20>  H        0.1215100000    -1.8986390000     1.3981770000
| 21>  H       -0.3479270000    -0.8408650000     0.0744570000
| 22>  H        2.7082690000     0.1399540000     0.9517010000
| 23>  H        4.6017760000    -0.2552660000    -0.1638350000
| 24>  H        5.1399790000    -1.7237710000    -1.7527790000
| 25>  H        3.4603320000    -1.5721190000    -2.2909510000
| 26>  H        4.2985890000    -3.5565850000    -0.1536630000
| 27>  H        4.3976220000    -3.9188220000    -1.8820220000
| 28>  H        2.0027170000    -2.9983410000    -0.7599740000
| 29> *
| 30>
| 31>                          ****END OF INPUT****
 Total Charge           Charge          ....    0
 Multiplicity           Mult            ....    1
 Number of Electrons    NEL             ....   56
 Basis Dimension        Dim             ....  148

MULLIKEN ATOMIC CHARGES
-----------------------
   0 C :    0.085149
   1 N :   -0.273708
   2 C :    0.059071
   3 N :   -0.116849
   4 C :    0.032728
   5 C :    0.195858
   6 O :   -0.301785
   7 H :   -0.002707
   8 H :    0.033364
   9 H :    0.032527
  10 H :   -0.012341
  11 H :    0.118545
  12 H :    0.002432
  13 H :    0.026778
  14 H :   -0.017865
  15 H :    0.002231
  16 H :    0.136572
Sum of atomic charges:   -0.0000000

LOEWDIN ATOMIC CHARGES
----------------------
   0 C :   -0.003005
   1 N :   -0.146180
   2 C :    0.029850
   3 N :    0.004165
   4 C :    0.000508
   5 C :    0.043487
   6 O :   -0.143371
   7 H :    0.005304
   8 H :    0.025767
   9 H :    0.026114
  10 H :   -0.002606
  11 H :    0.075786
  12 H :    0.027802
  13 H :    0.023058
  14 H :   -0.001374
  15 H :    0.018695
  16 H :    0.016000

  Mayer bond orders larger than 0.1
B(  0-C ,  1-N ) :   1.0412 B(  0-C ,  7-H ) :   0.9455 B(  0-C ,  8-H ) :   0.9637
B(  0-C ,  9-H ) :   0.9635 B(  1-N ,  2-C ) :   1.7380 B(  1-N ,  3-N ) :   0.1031
B(  1-N , 16-H ) :   0.1676 B(  2-C ,  3-N ) :   1.2613 B(  2-C , 10-H ) :   0.9282
B(  3-N ,  4-C ) :   1.0161 B(  3-N , 11-H ) :   0.9348 B(  4-C ,  5-C ) :   1.0626
B(  4-C , 12-H ) :   0.9287 B(  4-C , 13-H ) :   0.9314 B(  5-C ,  6-O ) :   1.1260
B(  5-C , 14-H ) :   0.9158 B(  5-C , 15-H ) :   0.9333 B(  6-O , 16-H ) :   0.9179

FINAL SINGLE POINT ENERGY      -342.481160025351

DIPOLE MOMENT
-------------
                                X             Y             Z
Electronic contribution:      1.04035      -0.52453      -0.71348
Nuclear contribution   :     -0.28524       1.91993       1.14797
                        -----------------------------------------
Total Dipole Moment    :      0.75511       1.39540       0.43448
                        -----------------------------------------
Magnitude (a.u.)       :      1.64503
Magnitude (Debye)      :      4.18133

                             ****ORCA TERMINATED NORMALLY****
TOTAL RUN TIME: 0 days 0 hours 0 minutes 7 seconds 660 msec
