                         Program Version 3.0.3 - RELEASE   -
|  1> ! RI PBE def2-SVP def2-SVP/J NBO PAL2
|  2> % maxcore 2000
|  3> % output
|  4>     # printlevel mini
|  5>     print[ P_Basis ] 0
|  6>     print[ P_SCFInfo ] 1
|  7>     print[ P_SCFIterInfo ] 1
|  8>     print[ P_OrbEn ] 0
|  9>     print[ P_Cartesian ] 0
| 10> end
| 11> *xyz 0 1
| 12>  C        1.2836990000     0.4290380000     0.5047440000
| 13>  N        2.6330220000     0.9176550000     0.4017060000
| 14>  C        2.9776890000     1.4305480000    -0.7148400000
| 15>  N        2.2367530000     1.5814790000    -1.8360310000
| 16>  C        4.3881210000     1.9555510000    -0.8624580000
| 17>  C        5.2964150000     1.8394770000     0.3176650000
| 18>  O        4.7262490000     2.4437180000    -1.9165410000
| 19>  H        1.1125880000     0.0175250000     1.4995460000
| 20>  H        1.0751210000    -0.3668840000    -0.2263050000
| 21>  H        0.5418340000     1.2253600000     0.3406260000
| 22>  H        1.2831440000     1.2810130000    -1.8892450000
| 23>  H        2.6802610000     2.0125000000    -2.6295050000
| 24>  H        4.8633520000     2.3597460000     1.1740200000
| 25>  H        6.2693980000     2.2553840000     0.0638210000
| 26>  H        5.3873850000     0.7935990000     0.6167070000
| 27> *
| 28>
| 29>                          ****END OF INPUT****
 Total Charge           Charge          ....    0
 Multiplicity           Mult            ....    1
 Number of Electrons    NEL             ....   54
 Basis Dimension        Dim             ....  138

MULLIKEN ATOMIC CHARGES
-----------------------
   0 C :    0.067506
   1 N :   -0.166935
   2 C :   -0.160848
   3 N :   -0.014953
   4 C :   -0.022108
   5 C :    0.081138
   6 O :   -0.167035
   7 H :    0.025354
   8 H :    0.010496
   9 H :    0.013258
  10 H :    0.106387
  11 H :    0.110407
  12 H :    0.047007
  13 H :    0.024572
  14 H :    0.045754
Sum of atomic charges:   -0.0000000

LOEWDIN ATOMIC CHARGES
----------------------
   0 C :   -0.019813
   1 N :   -0.150445
   2 C :   -0.039978
   3 N :    0.023108
   4 C :    0.054824
   5 C :   -0.078226
   6 O :   -0.124385
   7 H :    0.023731
   8 H :    0.013987
   9 H :    0.014913
  10 H :    0.069722
  11 H :    0.069723
  12 H :    0.054208
  13 H :    0.034954
  14 H :    0.053678

  Mayer bond orders larger than 0.1
B(  0-C ,  1-N ) :   1.0529 B(  0-C ,  7-H ) :   0.9723 B(  0-C ,  8-H ) :   0.9443
B(  0-C ,  9-H ) :   0.9441 B(  1-N ,  2-C ) :   1.9040 B(  1-N ,  3-N ) :   0.1304
B(  2-C ,  3-N ) :   1.3363 B(  2-C ,  4-C ) :   0.8586 B(  3-N , 10-H ) :   0.9433
B(  3-N , 11-H ) :   0.8970 B(  4-C ,  5-C ) :   1.0996 B(  4-C ,  6-O ) :   2.1520
B(  5-C , 12-H ) :   0.9227 B(  5-C , 13-H ) :   0.9370 B(  5-C , 14-H ) :   0.9245

FINAL SINGLE POINT ENERGY      -341.300820636277

DIPOLE MOMENT
-------------
                                X             Y             Z
Electronic contribution:      2.49043       2.16469      -3.73272
Nuclear contribution   :     -3.30405      -2.37317       3.55775
                        -----------------------------------------
Total Dipole Moment    :     -0.81361      -0.20848      -0.17498
                        -----------------------------------------
Magnitude (a.u.)       :      0.85793
Magnitude (Debye)      :      2.18069

                             ****ORCA TERMINATED NORMALLY****
TOTAL RUN TIME: 0 days 0 hours 0 minutes 6 seconds 904 msec
