                         Program Version 3.0.3 - RELEASE   -
|  1> ! RI PBE def2-SVP def2-SVP/J NBO PAL2
|  2> % maxcore 2000
|  3> % output
|  4>     # printlevel mini
|  5>     print[ P_Basis ] 0
|  6>     print[ P_SCFInfo ] 1
|  7>     print[ P_SCFIterInfo ] 1
|  8>     print[ P_OrbEn ] 0
|  9>     print[ P_Cartesian ] 0
| 10> end
| 11> *xyz 0 1
| 12>  C        0.6539130000    -0.0970580000    -0.3194260000
| 13>  N        2.0911280000    -0.1604320000    -0.2372860000
| 14>  C        2.7261490000     0.9426080000    -0.2190560000
| 15>  N        2.1931680000     2.1998800000    -0.3126120000
| 16>  C        4.2300170000     0.8694150000    -0.1903430000
| 17>  C        4.9822090000     1.8506560000     0.6579260000
| 18>  O        4.5626370000     2.9002590000     1.0723060000
| 19>  H        0.2433760000    -1.1068210000    -0.2949490000
| 20>  H        0.3100980000     0.3784670000    -1.2494170000
| 21>  H        0.2054690000     0.4577250000     0.5196130000
| 22>  H        1.2003920000     2.2830960000    -0.1710600000
| 23>  H        2.7514430000     2.9394100000     0.0900880000
| 24>  H        4.6198480000     1.0167820000    -1.2097620000
| 25>  H        4.5156900000    -0.1469400000     0.0873910000
| 26>  H        6.0293620000     1.5520530000     0.8738850000
| 27> *
| 28>
| 29>                          ****END OF INPUT****
 Total Charge           Charge          ....    0
 Multiplicity           Mult            ....    1
 Number of Electrons    NEL             ....   54
 Basis Dimension        Dim             ....  138

MULLIKEN ATOMIC CHARGES
-----------------------
   0 C :    0.053793
   1 N :   -0.186262
   2 C :   -0.169187
   3 N :   -0.053169
   4 C :    0.076875
   5 C :    0.090875
   6 O :   -0.177126
   7 H :    0.023055
   8 H :    0.013609
   9 H :    0.007895
  10 H :    0.100624
  11 H :    0.104483
  12 H :    0.069706
  13 H :    0.036843
  14 H :    0.007987
Sum of atomic charges:   -0.0000000

LOEWDIN ATOMIC CHARGES
----------------------
   0 C :   -0.023081
   1 N :   -0.168843
   2 C :   -0.002078
   3 N :   -0.004486
   4 C :   -0.084195
   5 C :    0.103055
   6 O :   -0.112130
   7 H :    0.023211
   8 H :    0.013748
   9 H :    0.008788
  10 H :    0.066836
  11 H :    0.055370
  12 H :    0.070265
  13 H :    0.055172
  14 H :   -0.001633

  Mayer bond orders larger than 0.1
B(  0-C ,  1-N ) :   1.0508 B(  0-C ,  7-H ) :   0.9712 B(  0-C ,  8-H ) :   0.9496
B(  0-C ,  9-H ) :   0.9429 B(  1-N ,  2-C ) :   1.9487 B(  1-N ,  3-N ) :   0.1122
B(  2-C ,  3-N ) :   1.2438 B(  2-C ,  4-C ) :   0.9792 B(  3-N , 10-H ) :   0.9434
B(  3-N , 11-H ) :   0.9045 B(  4-C ,  5-C ) :   0.9800 B(  4-C , 12-H ) :   0.8801
B(  4-C , 13-H ) :   0.8976 B(  5-C ,  6-O ) :   2.1083 B(  5-C , 14-H ) :   0.9269

FINAL SINGLE POINT ENERGY      -341.286490363196

DIPOLE MOMENT
-------------
                                X             Y             Z
Electronic contribution:      4.21038       2.72360       1.62862
Nuclear contribution   :     -4.15095      -2.44771      -1.80202
                        -----------------------------------------
Total Dipole Moment    :      0.05943       0.27589      -0.17340
                        -----------------------------------------
Magnitude (a.u.)       :      0.33123
Magnitude (Debye)      :      0.84192

                             ****ORCA TERMINATED NORMALLY****
TOTAL RUN TIME: 0 days 0 hours 0 minutes 6 seconds 310 msec
