                         Program Version 3.0.3 - RELEASE   -
|  1> ! RI PBE def2-SVP def2-SVP/J NBO PAL2
|  2> % maxcore 2000
|  3> % output
|  4>     # printlevel mini
|  5>     print[ P_Basis ] 0
|  6>     print[ P_SCFInfo ] 1
|  7>     print[ P_SCFIterInfo ] 1
|  8>     print[ P_OrbEn ] 0
|  9>     print[ P_Cartesian ] 0
| 10> end
| 11> *xyz 0 1
| 12>  C        0.9994950000    -0.1284610000    -0.2846810000
| 13>  N        2.4378610000     0.0199720000    -0.2322990000
| 14>  C        3.0673540000    -0.7015530000     0.5841420000
| 15>  N        4.4423060000    -0.6525610000     0.7278960000
| 16>  C        5.2498850000     0.2494770000    -0.0684660000
| 17>  C        5.0619640000    -1.4664080000     1.6357050000
| 18>  O        6.2514980000    -1.4879140000     1.8240020000
| 19>  H        0.5930530000     0.5531910000    -1.0317950000
| 20>  H        0.5275090000     0.1104280000     0.6750990000
| 21>  H        0.7020740000    -1.1452080000    -0.5653960000
| 22>  H        2.5992760000    -1.4326960000     1.2556720000
| 23>  H        4.5819700000     0.8044880000    -0.7215710000
| 24>  H        5.9724560000    -0.3191060000    -0.6551280000
| 25>  H        5.7989910000     0.9297720000     0.5836380000
| 26>  H        4.3517080000    -2.1104330000     2.1850910000
| 27> *
| 28>
| 29>                          ****END OF INPUT****
 Total Charge           Charge          ....    0
 Multiplicity           Mult            ....    1
 Number of Electrons    NEL             ....   54
 Basis Dimension        Dim             ....  138

MULLIKEN ATOMIC CHARGES
-----------------------
   0 C :    0.071192
   1 N :   -0.209220
   2 C :    0.080520
   3 N :   -0.196670
   4 C :    0.092926
   5 C :    0.155482
   6 O :   -0.200376
   7 H :    0.035204
   8 H :    0.023372
   9 H :    0.021776
  10 H :   -0.008883
  11 H :    0.050063
  12 H :    0.046336
  13 H :    0.046575
  14 H :   -0.008297
Sum of atomic charges:   -0.0000000

LOEWDIN ATOMIC CHARGES
----------------------
   0 C :   -0.009042
   1 N :   -0.127293
   2 C :    0.039022
   3 N :    0.003881
   4 C :    0.024948
   5 C :    0.061513
   6 O :   -0.151920
   7 H :    0.025621
   8 H :    0.022527
   9 H :    0.022120
  10 H :   -0.002512
  11 H :    0.032526
  12 H :    0.034721
  13 H :    0.034892
  14 H :   -0.011002

  Mayer bond orders larger than 0.1
B(  0-C ,  1-N ) :   1.0198 B(  0-C ,  7-H ) :   0.9779 B(  0-C ,  8-H ) :   0.9565
B(  0-C ,  9-H ) :   0.9563 B(  1-N ,  2-C ) :   1.8729 B(  2-C ,  3-N ) :   1.0876
B(  2-C , 10-H ) :   0.9236 B(  3-N ,  4-C ) :   0.9619 B(  3-N ,  5-C ) :   1.1143
B(  4-C , 11-H ) :   0.9480 B(  4-C , 12-H ) :   0.9679 B(  4-C , 13-H ) :   0.9676
B(  5-C ,  6-O ) :   2.0636 B(  5-C , 14-H ) :   0.9233

FINAL SINGLE POINT ENERGY      -341.296895440117

DIPOLE MOMENT
-------------
                                X             Y             Z
Electronic contribution:      4.93737      -2.04279       2.75474
Nuclear contribution   :     -5.96469       2.03068      -2.88603
                        -----------------------------------------
Total Dipole Moment    :     -1.02732      -0.01211      -0.13129
                        -----------------------------------------
Magnitude (a.u.)       :      1.03575
Magnitude (Debye)      :      2.63266

                             ****ORCA TERMINATED NORMALLY****
TOTAL RUN TIME: 0 days 0 hours 0 minutes 6 seconds 869 msec
