                         Program Version 3.0.3 - RELEASE   -
|  1> ! RI PBE def2-SVP def2-SVP/J NBO PAL2
|  2> % maxcore 2000
|  3> % output
|  4>     # printlevel mini
|  5>     print[ P_Basis ] 0
|  6>     print[ P_SCFInfo ] 1
|  7>     print[ P_SCFIterInfo ] 1
|  8>     print[ P_OrbEn ] 0
|  9>     print[ P_Cartesian ] 0
| 10> end
| 11> *xyz 0 1
| 12>  C        0.7557100000     0.1963960000    -0.2423820000
| 13>  N        2.1632370000     0.2628320000     0.0456640000
| 14>  C        2.7225860000     1.3886070000    -0.0335360000
| 15>  N        4.0723080000     1.5192710000     0.2308790000
| 16>  C        4.7494030000     2.7132150000     0.1659230000
| 17>  C        6.2171530000     2.6354770000     0.4924750000
| 18>  O        4.2045840000     3.7515430000    -0.1323860000
| 19>  H        0.2241010000    -0.2039090000     0.6255900000
| 20>  H        0.5844500000    -0.5022160000    -1.0662660000
| 21>  H        0.3118100000     1.1660740000    -0.5078980000
| 22>  H        2.2385510000     2.3309490000    -0.3026430000
| 23>  H        4.5583890000     0.6737120000     0.4836710000
| 24>  H        6.5607700000     1.6310790000     0.7417010000
| 25>  H        6.4204230000     3.3035900000     1.3307630000
| 26>  H        6.7817250000     3.0065790000    -0.3642440000
| 27> *
| 28>
| 29>                          ****END OF INPUT****
 Total Charge           Charge          ....    0
 Multiplicity           Mult            ....    1
 Number of Electrons    NEL             ....   54
 Basis Dimension        Dim             ....  138

MULLIKEN ATOMIC CHARGES
-----------------------
   0 C :    0.068417
   1 N :   -0.190085
   2 C :    0.033265
   3 N :   -0.054289
   4 C :   -0.011283
   5 C :    0.019985
   6 O :   -0.206088
   7 H :    0.037324
   8 H :    0.036078
   9 H :    0.002219
  10 H :    0.015822
  11 H :    0.116961
  12 H :    0.010825
  13 H :    0.059507
  14 H :    0.061341
Sum of atomic charges:   -0.0000000

LOEWDIN ATOMIC CHARGES
----------------------
   0 C :   -0.006803
   1 N :   -0.123889
   2 C :    0.041500
   3 N :    0.030933
   4 C :    0.035456
   5 C :   -0.086909
   6 O :   -0.174858
   7 H :    0.029481
   8 H :    0.029158
   9 H :    0.005961
  10 H :    0.005007
  11 H :    0.081070
  12 H :    0.026301
  13 H :    0.053520
  14 H :    0.054071

  Mayer bond orders larger than 0.1
B(  0-C ,  1-N ) :   1.0545 B(  0-C ,  7-H ) :   0.9616 B(  0-C ,  8-H ) :   0.9613
B(  0-C ,  9-H ) :   0.9439 B(  1-N ,  2-C ) :   1.8868 B(  2-C ,  3-N ) :   1.0978
B(  2-C , 10-H ) :   0.9340 B(  3-N ,  4-C ) :   1.1325 B(  3-N , 11-H ) :   0.9075
B(  4-C ,  5-C ) :   1.0347 B(  4-C ,  6-O ) :   2.0707 B(  5-C , 12-H ) :   0.9474
B(  5-C , 13-H ) :   0.9424 B(  5-C , 14-H ) :   0.9421

FINAL SINGLE POINT ENERGY      -341.313833982303

DIPOLE MOMENT
-------------
                                X             Y             Z
Electronic contribution:      1.13279       2.15088      -0.13755
Nuclear contribution   :     -0.71396      -2.75579       0.33314
                        -----------------------------------------
Total Dipole Moment    :      0.41882      -0.60491       0.19559
                        -----------------------------------------
Magnitude (a.u.)       :      0.76130
Magnitude (Debye)      :      1.93508

                             ****ORCA TERMINATED NORMALLY****
TOTAL RUN TIME: 0 days 0 hours 0 minutes 6 seconds 300 msec
