                         Program Version 3.0.3 - RELEASE   -
|  1> ! RI PBE def2-SVP def2-SVP/J NBO PAL2
|  2> % maxcore 2000
|  3> % output
|  4>     # printlevel mini
|  5>     print[ P_Basis ] 0
|  6>     print[ P_SCFInfo ] 1
|  7>     print[ P_SCFIterInfo ] 1
|  8>     print[ P_OrbEn ] 0
|  9>     print[ P_Cartesian ] 0
| 10> end
| 11> *xyz 0 1
| 12>  C        0.5100930000     1.7931160000    -0.3567980000
| 13>  N        1.9065440000     2.1037510000    -0.2210240000
| 14>  C        2.7080740000     1.1374890000    -0.0532400000
| 15>  N        4.0433640000     1.3137500000     0.1129370000
| 16>  C        4.6463770000     2.5960730000    -0.0150980000
| 17>  C        6.1359150000     2.4862280000    -0.0668210000
| 18>  O        6.7321920000     1.4430860000    -0.0395320000
| 19>  H        0.1314490000     2.1752180000    -1.3099130000
| 20>  H       -0.0641680000     2.2902350000     0.4314370000
| 21>  H        0.2903300000     0.7149840000    -0.3096470000
| 22>  H        2.3933690000     0.0857880000    -0.0126180000
| 23>  H        4.6670530000     0.5242340000     0.0859830000
| 24>  H        4.3790070000     3.2683710000     0.8137370000
| 25>  H        4.3067700000     3.1245240000    -0.9196000000
| 26>  H        6.6735510000     3.4530440000    -0.1362030000
| 27> *
| 28>
| 29>                          ****END OF INPUT****
 Total Charge           Charge          ....    0
 Multiplicity           Mult            ....    1
 Number of Electrons    NEL             ....   54
 Basis Dimension        Dim             ....  138

MULLIKEN ATOMIC CHARGES
-----------------------
   0 C :    0.083153
   1 N :   -0.248380
   2 C :    0.044486
   3 N :   -0.143842
   4 C :    0.132715
   5 C :    0.073251
   6 O :   -0.175197
   7 H :    0.021200
   8 H :    0.024950
   9 H :   -0.011303
  10 H :   -0.022028
  11 H :    0.117624
  12 H :    0.048697
  13 H :    0.047680
  14 H :    0.006994
Sum of atomic charges:   -0.0000000

LOEWDIN ATOMIC CHARGES
----------------------
   0 C :   -0.008238
   1 N :   -0.172723
   2 C :    0.019675
   3 N :   -0.002947
   4 C :   -0.013403
   5 C :    0.093057
   6 O :   -0.109940
   7 H :    0.021619
   8 H :    0.022360
   9 H :    0.000001
  10 H :   -0.010403
  11 H :    0.066018
  12 H :    0.048502
  13 H :    0.047600
  14 H :   -0.001178

  Mayer bond orders larger than 0.1
B(  0-C ,  1-N ) :   1.0546 B(  0-C ,  7-H ) :   0.9635 B(  0-C ,  8-H ) :   0.9633
B(  0-C ,  9-H ) :   0.9406 B(  1-N ,  2-C ) :   1.8057 B(  2-C ,  3-N ) :   1.2172
B(  2-C , 10-H ) :   0.9294 B(  3-N ,  4-C ) :   1.0473 B(  3-N , 11-H ) :   0.9155
B(  4-C ,  5-C ) :   0.9752 B(  4-C , 12-H ) :   0.9019 B(  4-C , 13-H ) :   0.8954
B(  5-C ,  6-O ) :   2.1447 B(  5-C , 14-H ) :   0.9259

FINAL SINGLE POINT ENERGY      -341.277898919962

DIPOLE MOMENT
-------------
                                X             Y             Z
Electronic contribution:      7.21793      -0.83428       0.55037
Nuclear contribution   :     -7.24558       0.94730      -0.56531
                        -----------------------------------------
Total Dipole Moment    :     -0.02765       0.11302      -0.01494
                        -----------------------------------------
Magnitude (a.u.)       :      0.11731
Magnitude (Debye)      :      0.29818

                             ****ORCA TERMINATED NORMALLY****
TOTAL RUN TIME: 0 days 0 hours 0 minutes 6 seconds 736 msec
