                         Program Version 3.0.3 - RELEASE   -
|  1> ! RI PBE def2-SVP def2-SVP/J NBO PAL2
|  2> % maxcore 2000
|  3> % output
|  4>     # printlevel mini
|  5>     print[ P_Basis ] 0
|  6>     print[ P_SCFInfo ] 1
|  7>     print[ P_SCFIterInfo ] 1
|  8>     print[ P_OrbEn ] 0
|  9>     print[ P_Cartesian ] 0
| 10> end
| 11> *xyz 0 1
| 12>  C        1.0165810000    -0.2081070000    -0.0761040000
| 13>  N        2.3982640000     0.1332720000     0.1860770000
| 14>  C        2.8208380000     0.2085270000     1.5044770000
| 15>  N        2.1362150000     0.0117610000     2.5500180000
| 16>  C        3.2389020000     0.3700290000    -0.8968300000
| 17>  C        4.6752310000     0.7247920000    -0.6120690000
| 18>  O        2.8253440000     0.2925210000    -2.0308130000
| 19>  H        0.7813220000    -1.1949340000     0.3308030000
| 20>  H        0.8742790000    -0.2185230000    -1.1527960000
| 21>  H        0.3471840000     0.5310090000     0.3715250000
| 22>  H        3.8688690000     0.4694330000     1.6187040000
| 23>  H        1.1680560000    -0.2268500000     2.3441640000
| 24>  H        5.1879180000    -0.0700040000    -0.0663410000
| 25>  H        4.7567210000     1.6429750000    -0.0266650000
| 26>  H        5.1632860000     0.8698980000    -1.5725500000
| 27> *
| 28>
| 29>                          ****END OF INPUT****
 Total Charge           Charge          ....    0
 Multiplicity           Mult            ....    1
 Number of Electrons    NEL             ....   54
 Basis Dimension        Dim             ....  138

MULLIKEN ATOMIC CHARGES
-----------------------
   0 C :    0.045782
   1 N :   -0.207082
   2 C :   -0.000115
   3 N :   -0.103560
   4 C :    0.032752
   5 C :   -0.007274
   6 O :   -0.188770
   7 H :    0.047081
   8 H :    0.061593
   9 H :    0.050705
  10 H :    0.020710
  11 H :    0.080254
  12 H :    0.061610
  13 H :    0.058996
  14 H :    0.047318
Sum of atomic charges:   -0.0000000

LOEWDIN ATOMIC CHARGES
----------------------
   0 C :    0.010824
   1 N :   -0.019691
   2 C :    0.026813
   3 N :   -0.125249
   4 C :    0.049011
   5 C :   -0.088659
   6 O :   -0.154445
   7 H :    0.028757
   8 H :    0.038312
   9 H :    0.029309
  10 H :    0.020416
  11 H :    0.042583
  12 H :    0.047296
  13 H :    0.046783
  14 H :    0.047942

  Mayer bond orders larger than 0.1
B(  0-C ,  1-N ) :   0.9770 B(  0-C ,  7-H ) :   0.9631 B(  0-C ,  8-H ) :   0.9404
B(  0-C ,  9-H ) :   0.9636 B(  1-N ,  2-C ) :   1.0712 B(  1-N ,  4-C ) :   1.0687
B(  2-C ,  3-N ) :   2.0338 B(  2-C , 10-H ) :   0.9330 B(  3-N , 11-H ) :   0.9481
B(  4-C ,  5-C ) :   1.0470 B(  4-C ,  6-O ) :   2.0859 B(  5-C , 12-H ) :   0.9364
B(  5-C , 13-H ) :   0.9363 B(  5-C , 14-H ) :   0.9409

FINAL SINGLE POINT ENERGY      -341.307189757919

DIPOLE MOMENT
-------------
                                X             Y             Z
Electronic contribution:     -0.34706      -0.05684      -1.19755
Nuclear contribution   :      0.37072       0.06557       1.21162
                        -----------------------------------------
Total Dipole Moment    :      0.02366       0.00873       0.01406
                        -----------------------------------------
Magnitude (a.u.)       :      0.02888
Magnitude (Debye)      :      0.07340

                             ****ORCA TERMINATED NORMALLY****
TOTAL RUN TIME: 0 days 0 hours 0 minutes 6 seconds 955 msec
