                         Program Version 3.0.3 - RELEASE   -
|  1> ! RI PBE def2-SVP def2-SVP/J NBO PAL2
|  2> % maxcore 2000
|  3> % output
|  4>     # printlevel mini
|  5>     print[ P_Basis ] 0
|  6>     print[ P_SCFInfo ] 1
|  7>     print[ P_SCFIterInfo ] 1
|  8>     print[ P_OrbEn ] 0
|  9>     print[ P_Cartesian ] 0
| 10> end
| 11> *xyz 0 1
| 12>  C        0.9077850000    -0.2098650000    -0.1077770000
| 13>  N        2.3178400000    -0.5050360000    -0.1953090000
| 14>  C        3.0386280000    -0.5392260000     1.0487640000
| 15>  N        2.8996570000     0.0750250000    -1.2633720000
| 16>  C        4.1402620000     0.3504520000    -1.3075030000
| 17>  C        4.6828910000     0.9204310000    -2.5809590000
| 18>  O        3.6946980000     1.1141570000    -3.5474420000
| 19>  H        0.7089820000     0.8000410000     0.2814410000
| 20>  H        0.4234710000    -0.9375340000     0.5456820000
| 21>  H        0.4754900000    -0.2870040000    -1.1043570000
| 22>  H        2.4041280000    -0.9949930000     1.8079760000
| 23>  H        3.3334720000     0.4666490000     1.3899970000
| 24>  H        3.9416720000    -1.1479340000     0.9544530000
| 25>  H        4.8390170000     0.1799330000    -0.4882620000
| 26>  H        5.4653050000     0.2466780000    -2.9651590000
| 27>  H        5.1823880000     1.8753450000    -2.3584480000
| 28>  H        2.8790240000     0.7724820000    -3.1518270000
| 29> *
| 30>
| 31>                          ****END OF INPUT****
 Total Charge           Charge          ....    0
 Multiplicity           Mult            ....    1
 Number of Electrons    NEL             ....   56
 Basis Dimension        Dim             ....  148

MULLIKEN ATOMIC CHARGES
-----------------------
   0 C :    0.107974
   1 N :   -0.238222
   2 C :    0.098785
   3 N :   -0.097463
   4 C :   -0.160021
   5 C :    0.256147
   6 O :   -0.280565
   7 H :    0.012648
   8 H :    0.026831
   9 H :    0.037750
  10 H :    0.031333
  11 H :    0.013301
  12 H :    0.042060
  13 H :   -0.004426
  14 H :    0.007229
  15 H :    0.006012
  16 H :    0.140626
Sum of atomic charges:   -0.0000000

LOEWDIN ATOMIC CHARGES
----------------------
   0 C :    0.006598
   1 N :   -0.020653
   2 C :   -0.004002
   3 N :   -0.045533
   4 C :   -0.074629
   5 C :    0.046559
   6 O :   -0.126199
   7 H :    0.009930
   8 H :    0.023588
   9 H :    0.030571
  10 H :    0.032240
  11 H :    0.013266
  12 H :    0.027996
  13 H :    0.001103
  14 H :    0.017026
  15 H :    0.018152
  16 H :    0.043986

  Mayer bond orders larger than 0.1
B(  0-C ,  1-N ) :   1.0114 B(  0-C ,  7-H ) :   0.9551 B(  0-C ,  8-H ) :   0.9658
B(  0-C ,  9-H ) :   0.9651 B(  1-N ,  2-C ) :   1.0251 B(  1-N ,  3-N ) :   1.0928
B(  1-N ,  4-C ) :   0.1304 B(  2-C , 10-H ) :   0.9583 B(  2-C , 11-H ) :   0.9369
B(  2-C , 12-H ) :   0.9515 B(  3-N ,  4-C ) :   1.8171 B(  3-N , 16-H ) :   0.1066
B(  4-C ,  5-C ) :   1.0139 B(  4-C , 13-H ) :   0.9225 B(  5-C ,  6-O ) :   1.1449
B(  5-C , 14-H ) :   0.9060 B(  5-C , 15-H ) :   0.9127 B(  6-O , 16-H ) :   0.9499

FINAL SINGLE POINT ENERGY      -342.438747321109

DIPOLE MOMENT
-------------
                                X             Y             Z
Electronic contribution:      0.99950       0.45581      -4.60450
Nuclear contribution   :     -1.15296      -0.82715       6.00834
                        -----------------------------------------
Total Dipole Moment    :     -0.15346      -0.37134       1.40384
                        -----------------------------------------
Magnitude (a.u.)       :      1.46021
Magnitude (Debye)      :      3.71155

                             ****ORCA TERMINATED NORMALLY****
TOTAL RUN TIME: 0 days 0 hours 0 minutes 7 seconds 360 msec
