                         Program Version 3.0.3 - RELEASE   -
|  1> ! RI PBE def2-SVP def2-SVP/J NBO PAL2
|  2> % maxcore 2000
|  3> % output
|  4>     # printlevel mini
|  5>     print[ P_Basis ] 0
|  6>     print[ P_SCFInfo ] 1
|  7>     print[ P_SCFIterInfo ] 1
|  8>     print[ P_OrbEn ] 0
|  9>     print[ P_Cartesian ] 0
| 10> end
| 11> *xyz 0 1
| 12>  C        0.9642580000     0.1828620000     0.4778820000
| 13>  N        2.3367620000     0.5813750000     0.2974120000
| 14>  C        3.0254810000     1.2825520000     1.3483250000
| 15>  N        2.9042800000     0.2819830000    -0.8343380000
| 16>  C        4.1338580000     0.6007700000    -1.0830490000
| 17>  C        4.6583920000     0.2142360000    -2.3793480000
| 18>  O        5.7862680000     0.4424610000    -2.7537420000
| 19>  H        0.8601160000    -0.4985600000     1.3287350000
| 20>  H        0.6440050000    -0.3263930000    -0.4279960000
| 21>  H        0.3203300000     1.0521200000     0.6478250000
| 22>  H        2.3462170000     1.4151260000     2.1882710000
| 23>  H        3.3637310000     2.2681550000     1.0083560000
| 24>  H        3.9024540000     0.7198120000     1.6884020000
| 25>  H        4.7921080000     1.1310250000    -0.3971640000
| 26>  H        3.9262300000    -0.3213060000    -3.0186820000
| 27> *
| 28>
| 29>                          ****END OF INPUT****
 Total Charge           Charge          ....    0
 Multiplicity           Mult            ....    1
 Number of Electrons    NEL             ....   54
 Basis Dimension        Dim             ....  138

MULLIKEN ATOMIC CHARGES
-----------------------
   0 C :    0.106278
   1 N :   -0.228298
   2 C :    0.101585
   3 N :   -0.029339
   4 C :   -0.097629
   5 C :    0.136962
   6 O :   -0.195147
   7 H :    0.038229
   8 H :    0.049277
   9 H :    0.037631
  10 H :    0.035035
  11 H :    0.050191
  12 H :    0.050217
  13 H :   -0.016227
  14 H :   -0.038764
Sum of atomic charges:   -0.0000000

LOEWDIN ATOMIC CHARGES
----------------------
   0 C :    0.013114
   1 N :    0.031970
   2 C :    0.003316
   3 N :   -0.007036
   4 C :   -0.121599
   5 C :    0.045986
   6 O :   -0.145338
   7 H :    0.026279
   8 H :    0.038371
   9 H :    0.026500
  10 H :    0.035524
  11 H :    0.034446
  12 H :    0.034180
  13 H :    0.002023
  14 H :   -0.017734

  Mayer bond orders larger than 0.1
B(  0-C ,  1-N ) :   0.9966 B(  0-C ,  7-H ) :   0.9622 B(  0-C ,  8-H ) :   0.9610
B(  0-C ,  9-H ) :   0.9615 B(  1-N ,  2-C ) :   0.9932 B(  1-N ,  3-N ) :   1.2251
B(  1-N ,  4-C ) :   0.1321 B(  2-C , 10-H ) :   0.9576 B(  2-C , 11-H ) :   0.9473
B(  2-C , 12-H ) :   0.9473 B(  3-N ,  4-C ) :   1.6320 B(  4-C ,  5-C ) :   1.0610
B(  4-C , 13-H ) :   0.9238 B(  5-C ,  6-O ) :   2.0804 B(  5-C , 14-H ) :   0.9272

FINAL SINGLE POINT ENERGY      -341.252761269496

DIPOLE MOMENT
-------------
                                X             Y             Z
Electronic contribution:      5.00049      -0.93004      -6.09026
Nuclear contribution   :     -6.53858       1.20003       7.91669
                        -----------------------------------------
Total Dipole Moment    :     -1.53809       0.26999       1.82643
                        -----------------------------------------
Magnitude (a.u.)       :      2.40301
Magnitude (Debye)      :      6.10797

                             ****ORCA TERMINATED NORMALLY****
TOTAL RUN TIME: 0 days 0 hours 0 minutes 7 seconds 288 msec
