                         Program Version 3.0.3 - RELEASE   -
|  1> ! RI PBE def2-SVP def2-SVP/J NBO PAL2
|  2> % maxcore 2000
|  3> % output
|  4>     # printlevel mini
|  5>     print[ P_Basis ] 0
|  6>     print[ P_SCFInfo ] 1
|  7>     print[ P_SCFIterInfo ] 1
|  8>     print[ P_OrbEn ] 0
|  9>     print[ P_Cartesian ] 0
| 10> end
| 11> *xyz 0 1
| 12>  C        1.5817360000     0.4239140000     0.9607540000
| 13>  N        1.8641300000    -0.4600050000    -0.1519700000
| 14>  C        3.0697570000    -1.2402750000     0.0399430000
| 15>  N        0.7692500000    -1.2407640000    -0.5102550000
| 16>  C        0.2177970000    -2.2280990000     0.3866420000
| 17>  C        0.2398600000    -1.0328100000    -1.7447360000
| 18>  O       -0.7081200000    -1.6264590000    -2.2045100000
| 19>  H        2.4154530000     1.1196650000     1.0719750000
| 20>  H        1.4508130000    -0.1022320000     1.9193980000
| 21>  H        0.6799330000     0.9984940000     0.7472950000
| 22>  H        3.9131200000    -0.5556500000     0.1473670000
| 23>  H        3.2418070000    -1.8634390000    -0.8381450000
| 24>  H        3.0410370000    -1.8833760000     0.9335460000
| 25>  H       -0.1460650000    -1.7703320000     1.3103950000
| 26>  H        0.9544100000    -2.9960500000     0.6373000000
| 27>  H       -0.6188390000    -2.6946840000    -0.1311970000
| 28>  H        0.7958020000    -0.2421980000    -2.2773910000
| 29> *
| 30>
| 31>                          ****END OF INPUT****
 Total Charge           Charge          ....    0
 Multiplicity           Mult            ....    1
 Number of Electrons    NEL             ....   56
 Basis Dimension        Dim             ....  148

MULLIKEN ATOMIC CHARGES
-----------------------
   0 C :    0.087719
   1 N :   -0.260896
   2 C :    0.093989
   3 N :   -0.192894
   4 C :    0.077445
   5 C :    0.177588
   6 O :   -0.237091
   7 H :    0.032750
   8 H :    0.007258
   9 H :    0.038633
  10 H :    0.029242
  11 H :    0.036321
  12 H :    0.008475
  13 H :    0.034097
  14 H :    0.037859
  15 H :    0.047126
  16 H :   -0.017619
Sum of atomic charges:   -0.0000000

LOEWDIN ATOMIC CHARGES
----------------------
   0 C :   -0.003374
   1 N :   -0.053027
   2 C :   -0.002436
   3 N :    0.007043
   4 C :    0.003641
   5 C :    0.043880
   6 O :   -0.185825
   7 H :    0.029996
   8 H :    0.001966
   9 H :    0.028998
  10 H :    0.029485
  11 H :    0.028258
  12 H :    0.002464
  13 H :    0.022763
  14 H :    0.023411
  15 H :    0.037339
  16 H :   -0.014580

  Mayer bond orders larger than 0.1
B(  0-C ,  1-N ) :   1.0162 B(  0-C ,  7-H ) :   0.9647 B(  0-C ,  8-H ) :   0.9437
B(  0-C ,  9-H ) :   0.9698 B(  1-N ,  2-C ) :   1.0125 B(  1-N ,  3-N ) :   0.9781
B(  2-C , 10-H ) :   0.9644 B(  2-C , 11-H ) :   0.9701 B(  2-C , 12-H ) :   0.9451
B(  3-N ,  4-C ) :   0.9753 B(  3-N ,  5-C ) :   1.1547 B(  3-N ,  6-O ) :   0.1083
B(  4-C , 13-H ) :   0.9619 B(  4-C , 14-H ) :   0.9628 B(  4-C , 15-H ) :   0.9420
B(  5-C ,  6-O ) :   2.0165 B(  5-C , 16-H ) :   0.9222

FINAL SINGLE POINT ENERGY      -342.463694089661

DIPOLE MOMENT
-------------
                                X             Y             Z
Electronic contribution:     -4.27792      -0.39185      -6.21296
Nuclear contribution   :      5.29276       0.62360       7.43816
                        -----------------------------------------
Total Dipole Moment    :      1.01484       0.23175       1.22520
                        -----------------------------------------
Magnitude (a.u.)       :      1.60771
Magnitude (Debye)      :      4.08647

                             ****ORCA TERMINATED NORMALLY****
TOTAL RUN TIME: 0 days 0 hours 0 minutes 7 seconds 535 msec
