                         Program Version 3.0.3 - RELEASE   -
|  1> ! RI PBE def2-SVP def2-SVP/J NBO PAL2
|  2> % maxcore 2000
|  3> % output
|  4>     # printlevel mini
|  5>     print[ P_Basis ] 0
|  6>     print[ P_SCFInfo ] 1
|  7>     print[ P_SCFIterInfo ] 1
|  8>     print[ P_OrbEn ] 0
|  9>     print[ P_Cartesian ] 0
| 10> end
| 11> *xyz 0 1
| 12>  C        1.1582660000     0.1481010000     0.5709090000
| 13>  N        2.4947900000    -0.2491800000     0.1751740000
| 14>  C        2.8622550000    -1.5519630000     0.6933440000
| 15>  N        2.6498870000    -0.1923990000    -1.1967610000
| 16>  C        3.5245780000     0.6385060000    -1.8340420000
| 17>  C        4.3562240000     1.5339800000    -0.9574510000
| 18>  O        3.6014620000     0.6305540000    -3.0453130000
| 19>  H        1.0940760000     0.1615980000     1.6605110000
| 20>  H        0.3827170000    -0.5364900000     0.1880130000
| 21>  H        0.9512440000     1.1507050000     0.1962290000
| 22>  H        2.7973920000    -1.5379420000     1.7829230000
| 23>  H        3.8891440000    -1.7803740000     0.4074150000
| 24>  H        2.2067510000    -2.3563150000     0.3189810000
| 25>  H        2.0895660000    -0.7952140000    -1.7927300000
| 26>  H        3.7235370000     2.1803920000    -0.3467810000
| 27>  H        4.9932660000     2.1355200000    -1.6016480000
| 28>  H        4.9676450000     0.9471420000    -0.2696620000
| 29> *
| 30>
| 31>                          ****END OF INPUT****
 Total Charge           Charge          ....    0
 Multiplicity           Mult            ....    1
 Number of Electrons    NEL             ....   56
 Basis Dimension        Dim             ....  148

MULLIKEN ATOMIC CHARGES
-----------------------
   0 C :    0.100231
   1 N :   -0.247143
   2 C :    0.097405
   3 N :   -0.065898
   4 C :   -0.023098
   5 C :    0.022929
   6 O :   -0.207320
   7 H :    0.031598
   8 H :   -0.001825
   9 H :    0.031956
  10 H :    0.033189
  11 H :    0.032296
  12 H :   -0.001468
  13 H :    0.092752
  14 H :    0.034673
  15 H :    0.035107
  16 H :    0.034616
Sum of atomic charges:   -0.0000000

LOEWDIN ATOMIC CHARGES
----------------------
   0 C :   -0.002739
   1 N :   -0.057288
   2 C :   -0.003284
   3 N :    0.041264
   4 C :    0.020757
   5 C :   -0.090093
   6 O :   -0.192092
   7 H :    0.027660
   8 H :    0.002074
   9 H :    0.026092
  10 H :    0.027864
  11 H :    0.026117
  12 H :    0.002187
  13 H :    0.050198
  14 H :    0.041272
  15 H :    0.038635
  16 H :    0.041376

  Mayer bond orders larger than 0.1
B(  0-C ,  1-N ) :   1.0121 B(  0-C ,  7-H ) :   0.9658 B(  0-C ,  8-H ) :   0.9448
B(  0-C ,  9-H ) :   0.9689 B(  1-N ,  2-C ) :   1.0123 B(  1-N ,  3-N ) :   0.9900
B(  2-C , 10-H ) :   0.9657 B(  2-C , 11-H ) :   0.9691 B(  2-C , 12-H ) :   0.9448
B(  3-N ,  4-C ) :   1.1519 B(  3-N , 13-H ) :   0.9017 B(  4-C ,  5-C ) :   1.0415
B(  4-C ,  6-O ) :   2.1110 B(  5-C , 14-H ) :   0.9354 B(  5-C , 15-H ) :   0.9509
B(  5-C , 16-H ) :   0.9361

FINAL SINGLE POINT ENERGY      -342.476652533304

DIPOLE MOMENT
-------------
                                X             Y             Z
Electronic contribution:      1.56480       1.10467      -6.51701
Nuclear contribution   :     -2.12489      -1.56725       7.90380
                        -----------------------------------------
Total Dipole Moment    :     -0.56009      -0.46259       1.38679
                        -----------------------------------------
Magnitude (a.u.)       :      1.56553
Magnitude (Debye)      :      3.97925

                             ****ORCA TERMINATED NORMALLY****
TOTAL RUN TIME: 0 days 0 hours 0 minutes 7 seconds 735 msec
