                         Program Version 3.0.3 - RELEASE   -
|  1> ! RI PBE def2-SVP def2-SVP/J NBO PAL2
|  2> % maxcore 2000
|  3> % output
|  4>     # printlevel mini
|  5>     print[ P_Basis ] 0
|  6>     print[ P_SCFInfo ] 1
|  7>     print[ P_SCFIterInfo ] 1
|  8>     print[ P_OrbEn ] 0
|  9>     print[ P_Cartesian ] 0
| 10> end
| 11> *xyz 0 1
| 12>  C        0.9014300000    -1.2947080000     0.1274040000
| 13>  N        2.3043230000    -1.0142610000     0.2346900000
| 14>  C        2.8113810000    -0.2299300000     1.2292320000
| 15>  N        2.1453010000     0.4385430000     2.0920870000
| 16>  C        4.3163960000    -0.1445900000     1.2575030000
| 17>  C        5.0278200000    -1.4712070000     1.4303670000
| 18>  O        4.9111140000    -2.2235080000     0.2276480000
| 19>  H        0.7351090000    -1.9607030000    -0.7188550000
| 20>  H        0.3293020000    -0.3788390000    -0.0529640000
| 21>  H        0.4957490000    -1.7738380000     1.0284590000
| 22>  H        2.9577130000    -1.6388550000    -0.2109550000
| 23>  H        1.1423510000     0.3065660000     1.9746120000
| 24>  H        4.5753740000     0.5116250000     2.0880930000
| 25>  H        4.6758420000     0.3215330000     0.3336280000
| 26>  H        4.5933650000    -2.0214680000     2.2747820000
| 27>  H        6.0850840000    -1.2842990000     1.6543780000
| 28>  H        5.2876580000    -3.0946890000     0.3694990000
| 29> *
| 30>
| 31>                          ****END OF INPUT****
 Total Charge           Charge          ....    0
 Multiplicity           Mult            ....    1
 Number of Electrons    NEL             ....   56
 Basis Dimension        Dim             ....  148

MULLIKEN ATOMIC CHARGES
-----------------------
   0 C :    0.054830
   1 N :   -0.116681
   2 C :   -0.222931
   3 N :   -0.106621
   4 C :    0.062477
   5 C :    0.131844
   6 O :   -0.286141
   7 H :    0.025346
   8 H :    0.035648
   9 H :    0.026390
  10 H :    0.101948
  11 H :    0.058573
  12 H :    0.017992
  13 H :    0.033419
  14 H :    0.008930
  15 H :    0.011345
  16 H :    0.163630
Sum of atomic charges:   -0.0000000

LOEWDIN ATOMIC CHARGES
----------------------
   0 C :   -0.002612
   1 N :   -0.022863
   2 C :   -0.002996
   3 N :   -0.185791
   4 C :   -0.056907
   5 C :    0.061717
   6 O :   -0.123651
   7 H :    0.030448
   8 H :    0.022806
   9 H :    0.014965
  10 H :    0.054830
  11 H :    0.031257
  12 H :    0.044718
  13 H :    0.037780
  14 H :    0.009985
  15 H :    0.011185
  16 H :    0.075129

  Mayer bond orders larger than 0.1
B(  0-C ,  1-N ) :   1.0415 B(  0-C ,  7-H ) :   0.9653 B(  0-C ,  8-H ) :   0.9592
B(  0-C ,  9-H ) :   0.9554 B(  1-N ,  2-C ) :   1.2136 B(  1-N , 10-H ) :   0.8921
B(  2-C ,  3-N ) :   2.0171 B(  2-C ,  4-C ) :   1.0117 B(  3-N , 11-H ) :   0.9387
B(  4-C ,  5-C ) :   1.0924 B(  4-C , 12-H ) :   0.9016 B(  4-C , 13-H ) :   0.9171
B(  5-C ,  6-O ) :   1.0376 B(  5-C , 14-H ) :   0.9348 B(  5-C , 15-H ) :   0.9350
B(  6-O , 10-H ) :   0.1017 B(  6-O , 16-H ) :   0.9739

FINAL SINGLE POINT ENERGY      -342.482854018561

DIPOLE MOMENT
-------------
                                X             Y             Z
Electronic contribution:      1.53402       0.56027      -0.10814
Nuclear contribution   :     -1.22390      -1.85202      -0.40684
                        -----------------------------------------
Total Dipole Moment    :      0.31013      -1.29175      -0.51498
                        -----------------------------------------
Magnitude (a.u.)       :      1.42479
Magnitude (Debye)      :      3.62152

                             ****ORCA TERMINATED NORMALLY****
TOTAL RUN TIME: 0 days 0 hours 0 minutes 7 seconds 920 msec
