                         Program Version 3.0.3 - RELEASE   -
|  1> ! RI PBE def2-SVP def2-SVP/J NBO PAL2
|  2> % maxcore 2000
|  3> % output
|  4>     # printlevel mini
|  5>     print[ P_Basis ] 0
|  6>     print[ P_SCFInfo ] 1
|  7>     print[ P_SCFIterInfo ] 1
|  8>     print[ P_OrbEn ] 0
|  9>     print[ P_Cartesian ] 0
| 10> end
| 11> *xyz 0 1
| 12>  C        0.9702810000     1.0424040000    -0.2922850000
| 13>  N        2.2625450000     0.4230310000    -0.1894410000
| 14>  C        3.1731750000     0.4578180000    -1.1926790000
| 15>  N        3.0721780000     1.0729190000    -2.3062340000
| 16>  C        4.4659090000    -0.3077310000    -0.9516130000
| 17>  C        5.2634070000     0.2828230000     0.2033630000
| 18>  O        5.2292920000    -0.3074690000    -2.1182990000
| 19>  H        0.4174940000     0.8725290000     0.6307030000
| 20>  H        0.3829320000     0.6357800000    -1.1242420000
| 21>  H        1.0625330000     2.1238610000    -0.4334250000
| 22>  H        2.4282420000    -0.2108480000     0.5711290000
| 23>  H        2.1936190000     1.5648830000    -2.4296150000
| 24>  H        4.1906210000    -1.3454110000    -0.7005820000
| 25>  H        4.7227790000     0.2277900000     1.1519410000
| 26>  H        6.1992030000    -0.2679650000     0.3085820000
| 27>  H        5.5002950000     1.3279570000    -0.0061540000
| 28>  H        4.7272970000     0.2602320000    -2.7349380000
| 29> *
| 30>
| 31>                          ****END OF INPUT****
 Total Charge           Charge          ....    0
 Multiplicity           Mult            ....    1
 Number of Electrons    NEL             ....   56
 Basis Dimension        Dim             ....  148

MULLIKEN ATOMIC CHARGES
-----------------------
   0 C :    0.055990
   1 N :   -0.108001
   2 C :   -0.162716
   3 N :   -0.147329
   4 C :    0.101106
   5 C :    0.042308
   6 O :   -0.255605
   7 H :    0.033373
   8 H :    0.038183
   9 H :    0.044469
  10 H :    0.111051
  11 H :    0.073775
  12 H :   -0.003256
  13 H :   -0.011452
  14 H :    0.033740
  15 H :    0.014908
  16 H :    0.139457
Sum of atomic charges:   -0.0000000

LOEWDIN ATOMIC CHARGES
----------------------
   0 C :    0.002979
   1 N :   -0.008097
   2 C :    0.001552
   3 N :   -0.170152
   4 C :    0.029343
   5 C :   -0.069257
   6 O :   -0.117158
   7 H :    0.034142
   8 H :    0.021670
   9 H :    0.026873
  10 H :    0.072218
  11 H :    0.041452
  12 H :    0.012230
  13 H :    0.014563
  14 H :    0.032870
  15 H :    0.029561
  16 H :    0.045214

  Mayer bond orders larger than 0.1
B(  0-C ,  1-N ) :   1.0300 B(  0-C ,  7-H ) :   0.9664 B(  0-C ,  8-H ) :   0.9592
B(  0-C ,  9-H ) :   0.9601 B(  1-N ,  2-C ) :   1.2337 B(  1-N , 10-H ) :   0.9202
B(  2-C ,  3-N ) :   1.9307 B(  2-C ,  4-C ) :   0.9332 B(  3-N , 11-H ) :   0.9326
B(  3-N , 16-H ) :   0.1382 B(  4-C ,  5-C ) :   1.0554 B(  4-C ,  6-O ) :   1.1871
B(  4-C , 12-H ) :   0.8961 B(  5-C , 13-H ) :   0.9441 B(  5-C , 14-H ) :   0.9588
B(  5-C , 15-H ) :   0.9481 B(  6-O , 16-H ) :   0.9219

FINAL SINGLE POINT ENERGY      -342.490838506388

DIPOLE MOMENT
-------------
                                X             Y             Z
Electronic contribution:      1.49872      -1.15719      -3.56876
Nuclear contribution   :     -2.92664       1.28091       4.73754
                        -----------------------------------------
Total Dipole Moment    :     -1.42791       0.12372       1.16879
                        -----------------------------------------
Magnitude (a.u.)       :      1.84941
Magnitude (Debye)      :      4.70082

                             ****ORCA TERMINATED NORMALLY****
TOTAL RUN TIME: 0 days 0 hours 0 minutes 7 seconds 779 msec
