                         Program Version 3.0.3 - RELEASE   -
|  1> ! RI PBE def2-SVP def2-SVP/J NBO PAL2
|  2> % maxcore 2000
|  3> % output
|  4>     # printlevel mini
|  5>     print[ P_Basis ] 0
|  6>     print[ P_SCFInfo ] 1
|  7>     print[ P_SCFIterInfo ] 1
|  8>     print[ P_OrbEn ] 0
|  9>     print[ P_Cartesian ] 0
| 10> end
| 11> *xyz 0 1
| 12>  C        3.0028690000     1.2102520000     0.7122870000
| 13>  N        2.3485450000     0.5061200000    -0.3598830000
| 14>  C        3.0399370000    -0.1581950000    -1.3264230000
| 15>  N        2.2111870000    -0.7982450000    -2.2220940000
| 16>  C        4.4072960000    -0.1992340000    -1.3708160000
| 17>  C        5.1602320000    -0.6827360000    -2.4867010000
| 18>  O        6.3708750000    -0.7789780000    -2.5339950000
| 19>  H        2.2481150000     1.7361520000     1.2965740000
| 20>  H        3.6941500000     1.9501660000     0.3054930000
| 21>  H        3.5630650000     0.5460590000     1.3811940000
| 22>  H        1.4418020000     0.1203240000    -0.1522320000
| 23>  H        1.4150810000    -0.2592850000    -2.5274000000
| 24>  H        2.6780270000    -1.2750080000    -2.9749080000
| 25>  H        4.9765500000     0.1602660000    -0.5242360000
| 26>  H        4.5675370000    -0.9711500000    -3.3886600000
| 27> *
| 28>
| 29>                          ****END OF INPUT****
 Total Charge           Charge          ....    0
 Multiplicity           Mult            ....    1
 Number of Electrons    NEL             ....   54
 Basis Dimension        Dim             ....  138

MULLIKEN ATOMIC CHARGES
-----------------------
   0 C :    0.073417
   1 N :   -0.165563
   2 C :    0.017511
   3 N :   -0.072599
   4 C :   -0.068568
   5 C :    0.076670
   6 O :   -0.218306
   7 H :    0.031384
   8 H :    0.048520
   9 H :    0.039842
  10 H :    0.113266
  11 H :    0.115049
  12 H :    0.106476
  13 H :   -0.022822
  14 H :   -0.074276
Sum of atomic charges:    0.0000000

LOEWDIN ATOMIC CHARGES
----------------------
   0 C :    0.010521
   1 N :   -0.005947
   2 C :    0.051273
   3 N :   -0.009446
   4 C :   -0.198919
   5 C :    0.034828
   6 O :   -0.171085
   7 H :    0.031254
   8 H :    0.034802
   9 H :    0.022359
  10 H :    0.070657
  11 H :    0.069740
  12 H :    0.065493
  13 H :    0.029202
  14 H :   -0.034734

  Mayer bond orders larger than 0.1
B(  0-C ,  1-N ) :   1.0415 B(  0-C ,  7-H ) :   0.9671 B(  0-C ,  8-H ) :   0.9616
B(  0-C ,  9-H ) :   0.9591 B(  1-N ,  2-C ) :   1.2150 B(  1-N , 10-H ) :   0.9264
B(  2-C ,  3-N ) :   1.2661 B(  2-C ,  4-C ) :   1.4300 B(  3-N , 11-H ) :   0.9435
B(  3-N , 12-H ) :   0.9393 B(  4-C ,  5-C ) :   1.1219 B(  4-C , 13-H ) :   0.9372
B(  5-C ,  6-O ) :   2.0497 B(  5-C , 14-H ) :   0.9219

FINAL SINGLE POINT ENERGY      -341.290803253455

DIPOLE MOMENT
-------------
                                X             Y             Z
Electronic contribution:      2.87017      -2.27780      -3.43755
Nuclear contribution   :     -5.25527       2.80966       4.08047
                        -----------------------------------------
Total Dipole Moment    :     -2.38510       0.53186       0.64292
                        -----------------------------------------
Magnitude (a.u.)       :      2.52684
Magnitude (Debye)      :      6.42272

                             ****ORCA TERMINATED NORMALLY****
TOTAL RUN TIME: 0 days 0 hours 0 minutes 6 seconds 826 msec
