                         Program Version 3.0.3 - RELEASE   -
|  1> ! RI PBE def2-SVP def2-SVP/J NBO PAL2
|  2> % maxcore 2000
|  3> % output
|  4>     # printlevel mini
|  5>     print[ P_Basis ] 0
|  6>     print[ P_SCFInfo ] 1
|  7>     print[ P_SCFIterInfo ] 1
|  8>     print[ P_OrbEn ] 0
|  9>     print[ P_Cartesian ] 0
| 10> end
| 11> *xyz 0 1
| 12>  C        0.7991790000     0.5660930000    -0.2939590000
| 13>  N        2.2251200000     0.4355990000    -0.3427110000
| 14>  C        2.8596740000    -0.3093390000    -1.2777770000
| 15>  N        2.3449910000    -0.9900010000    -2.2270660000
| 16>  C        4.3674690000    -0.3230150000    -1.1635470000
| 17>  O        4.8015680000     0.4653710000    -0.0851470000
| 18>  C        6.1965610000     0.4720540000     0.0490460000
| 19>  H        0.5273750000     1.2120040000     0.5399370000
| 20>  H        0.3082970000    -0.4031280000    -0.1478260000
| 21>  H        0.4013680000     1.0115220000    -1.2132260000
| 22>  H        2.8036180000     0.9055590000     0.3313710000
| 23>  H        1.3301660000    -0.9292470000    -2.2340350000
| 24>  H        4.7852580000     0.0441450000    -2.1101250000
| 25>  H        4.6915820000    -1.3649600000    -1.0419590000
| 26>  H        6.4430040000     1.1027340000     0.9032460000
| 27>  H        6.6828280000     0.8788180000    -0.8476620000
| 28>  H        6.5862430000    -0.5391190000     0.2270500000
| 29> *
| 30>
| 31>                          ****END OF INPUT****
 Total Charge           Charge          ....    0
 Multiplicity           Mult            ....    1
 Number of Electrons    NEL             ....   56
 Basis Dimension        Dim             ....  148

MULLIKEN ATOMIC CHARGES
-----------------------
   0 C :    0.060677
   1 N :   -0.096742
   2 C :   -0.211770
   3 N :   -0.150099
   4 C :    0.261429
   5 O :   -0.371646
   6 C :    0.153759
   7 H :    0.026154
   8 H :    0.034196
   9 H :    0.033848
  10 H :    0.108025
  11 H :    0.062533
  12 H :    0.016660
  13 H :    0.019605
  14 H :    0.032075
  15 H :    0.010858
  16 H :    0.010438
Sum of atomic charges:   -0.0000000

LOEWDIN ATOMIC CHARGES
----------------------
   0 C :    0.001957
   1 N :   -0.010114
   2 C :   -0.013982
   3 N :   -0.194287
   4 C :    0.059946
   5 O :   -0.153587
   6 C :    0.054999
   7 H :    0.031713
   8 H :    0.020864
   9 H :    0.020659
  10 H :    0.064333
  11 H :    0.033465
  12 H :    0.021879
  13 H :    0.022268
  14 H :    0.023096
  15 H :    0.008399
  16 H :    0.008394

  Mayer bond orders larger than 0.1
B(  0-C ,  1-N ) :   1.0351 B(  0-C ,  7-H ) :   0.9662 B(  0-C ,  8-H ) :   0.9586
B(  0-C ,  9-H ) :   0.9590 B(  1-N ,  2-C ) :   1.2603 B(  1-N ,  3-N ) :   0.1133
B(  1-N , 10-H ) :   0.8968 B(  2-C ,  3-N ) :   1.9426 B(  2-C ,  4-C ) :   0.9535
B(  3-N , 11-H ) :   0.9375 B(  4-C ,  5-O ) :   1.0014 B(  4-C , 12-H ) :   0.9194
B(  4-C , 13-H ) :   0.9218 B(  5-O ,  6-C ) :   1.0073 B(  6-C , 14-H ) :   0.9770
B(  6-C , 15-H ) :   0.9578 B(  6-C , 16-H ) :   0.9580

FINAL SINGLE POINT ENERGY      -342.468614189844

DIPOLE MOMENT
-------------
                                X             Y             Z
Electronic contribution:     -0.48527      -0.55327      -0.78108
Nuclear contribution   :      0.60402       1.20600       1.66911
                        -----------------------------------------
Total Dipole Moment    :      0.11875       0.65273       0.88803
                        -----------------------------------------
Magnitude (a.u.)       :      1.10849
Magnitude (Debye)      :      2.81755

                             ****ORCA TERMINATED NORMALLY****
TOTAL RUN TIME: 0 days 0 hours 0 minutes 7 seconds 449 msec
