                         Program Version 3.0.3 - RELEASE   -
|  1> ! RI PBE def2-SVP def2-SVP/J NBO PAL2
|  2> % maxcore 2000
|  3> % output
|  4>     # printlevel mini
|  5>     print[ P_Basis ] 0
|  6>     print[ P_SCFInfo ] 1
|  7>     print[ P_SCFIterInfo ] 1
|  8>     print[ P_OrbEn ] 0
|  9>     print[ P_Cartesian ] 0
| 10> end
| 11> *xyz 0 1
| 12>  C        1.1395560000     0.1136660000     0.2243930000
| 13>  N        2.5686520000     0.1182920000     0.0700060000
| 14>  C        3.0647610000    -0.1062490000    -1.0808990000
| 15>  N        2.2661310000    -0.2795710000    -2.2123170000
| 16>  O        2.8361100000    -0.9964910000    -3.2718450000
| 17>  C        4.5226550000    -0.0979600000    -1.2970000000
| 18>  C        5.3876070000     0.0779930000    -0.3062490000
| 19>  H        0.8872460000     0.2763580000     1.2725860000
| 20>  H        0.6783730000    -0.8435080000    -0.0724810000
| 21>  H        0.6537190000     0.9052250000    -0.3636520000
| 22>  H        1.3650970000    -0.6900800000    -2.0030900000
| 23>  H        2.8124070000    -0.3798540000    -4.0105360000
| 24>  H        4.8673940000    -0.2557520000    -2.3107100000
| 25>  H        5.0378190000     0.2216720000     0.7096300000
| 26>  H        6.4548940000     0.0810400000    -0.4912470000
| 27> *
| 28>
| 29>                          ****END OF INPUT****
 Total Charge           Charge          ....    0
 Multiplicity           Mult            ....    1
 Number of Electrons    NEL             ....   54
 Basis Dimension        Dim             ....  138

MULLIKEN ATOMIC CHARGES
-----------------------
   0 C :    0.052217
   1 N :   -0.180194
   2 C :   -0.036062
   3 N :   -0.047177
   4 O :   -0.212730
   5 C :    0.012814
   6 C :    0.017087
   7 H :    0.028379
   8 H :    0.006940
   9 H :    0.018227
  10 H :    0.123886
  11 H :    0.184593
  12 H :   -0.027048
  13 H :    0.035237
  14 H :    0.023830
Sum of atomic charges:    0.0000000

LOEWDIN ATOMIC CHARGES
----------------------
   0 C :   -0.021540
   1 N :   -0.140989
   2 C :   -0.014201
   3 N :    0.044911
   4 O :   -0.072463
   5 C :   -0.050355
   6 C :   -0.008664
   7 H :    0.024643
   8 H :    0.009179
   9 H :    0.016973
  10 H :    0.060715
  11 H :    0.076242
  12 H :    0.019988
  13 H :    0.029512
  14 H :    0.026050

  Mayer bond orders larger than 0.1
B(  0-C ,  1-N ) :   1.0605 B(  0-C ,  7-H ) :   0.9699 B(  0-C ,  8-H ) :   0.9341
B(  0-C ,  9-H ) :   0.9466 B(  1-N ,  2-C ) :   1.9187 B(  2-C ,  3-N ) :   1.0927
B(  2-C ,  5-C ) :   1.0426 B(  3-N ,  4-O ) :   0.9746 B(  3-N , 10-H ) :   0.9194
B(  4-O , 11-H ) :   0.9727 B(  5-C ,  6-C ) :   1.9628 B(  5-C , 12-H ) :   0.9343
B(  6-C , 13-H ) :   0.9291 B(  6-C , 14-H ) :   0.9347

FINAL SINGLE POINT ENERGY      -341.204199503757

DIPOLE MOMENT
-------------
                                X             Y             Z
Electronic contribution:      1.10268      -0.73072      -2.96802
Nuclear contribution   :     -1.56634       0.77426       2.08801
                        -----------------------------------------
Total Dipole Moment    :     -0.46366       0.04354      -0.88001
                        -----------------------------------------
Magnitude (a.u.)       :      0.99564
Magnitude (Debye)      :      2.53072

                             ****ORCA TERMINATED NORMALLY****
TOTAL RUN TIME: 0 days 0 hours 0 minutes 6 seconds 865 msec
