                         Program Version 3.0.3 - RELEASE   -
|  1> ! RI PBE def2-SVP def2-SVP/J NBO PAL2
|  2> % maxcore 2000
|  3> % output
|  4>     # printlevel mini
|  5>     print[ P_Basis ] 0
|  6>     print[ P_SCFInfo ] 1
|  7>     print[ P_SCFIterInfo ] 1
|  8>     print[ P_OrbEn ] 0
|  9>     print[ P_Cartesian ] 0
| 10> end
| 11> *xyz 0 1
| 12>  C        1.0962190000     0.0366280000    -0.0582330000
| 13>  N        2.5352760000    -0.0004390000    -0.0987800000
| 14>  C        3.1419850000    -0.6362310000     0.8209840000
| 15>  N        2.5126220000    -1.2320750000     1.9130740000
| 16>  O        3.2097690000    -2.2812120000     2.5135770000
| 17>  C        4.5764120000    -0.6795980000     0.8297490000
| 18>  C        5.7760660000    -0.6985640000     0.8267650000
| 19>  H        0.7252370000     0.5669910000    -0.9348770000
| 20>  H        0.7231630000     0.5560920000     0.8349720000
| 21>  H        0.6442590000    -0.9683550000    -0.0679710000
| 22>  H        1.5720090000    -1.5467120000     1.7138910000
| 23>  H        3.4793940000    -1.9296030000     3.3681680000
| 24>  H        6.8403890000    -0.7122210000     0.8084810000
| 25> *
| 26>
| 27>                          ****END OF INPUT****
 Total Charge           Charge          ....    0
 Multiplicity           Mult            ....    1
 Number of Electrons    NEL             ....   52
 Basis Dimension        Dim             ....  128

MULLIKEN ATOMIC CHARGES
-----------------------
   0 C :    0.052668
   1 N :   -0.171784
   2 C :   -0.040655
   3 N :   -0.038799
   4 O :   -0.205328
   5 C :    0.466703
   6 C :   -0.454922
   7 H :    0.035402
   8 H :    0.025059
   9 H :    0.011907
  10 H :    0.125353
  11 H :    0.185455
  12 H :    0.008940
Sum of atomic charges:    0.0000000

LOEWDIN ATOMIC CHARGES
----------------------
   0 C :   -0.020414
   1 N :   -0.117079
   2 C :   -0.030808
   3 N :    0.050160
   4 O :   -0.067771
   5 C :   -0.015749
   6 C :   -0.038885
   7 H :    0.027286
   8 H :    0.021091
   9 H :    0.012554
  10 H :    0.062961
  11 H :    0.078855
  12 H :    0.037799

  Mayer bond orders larger than 0.1
B(  0-C ,  1-N ) :   1.0447 B(  0-C ,  7-H ) :   0.9706 B(  0-C ,  8-H ) :   0.9479
B(  0-C ,  9-H ) :   0.9352 B(  1-N ,  2-C ) :   1.9053 B(  1-N ,  3-N ) :   0.1052
B(  2-C ,  3-N ) :   1.1061 B(  2-C ,  5-C ) :   0.9069 B(  3-N ,  4-O ) :   0.9958
B(  3-N , 10-H ) :   0.9204 B(  4-O , 11-H ) :   0.9715 B(  5-C ,  6-C ) :   2.2925
B(  5-C , 12-H ) :  -0.1043 B(  6-C , 12-H ) :   1.0938

FINAL SINGLE POINT ENERGY      -339.953727282526

DIPOLE MOMENT
-------------
                                X             Y             Z
Electronic contribution:      4.39643      -1.15314       1.27144
Nuclear contribution   :     -4.75446       0.87751      -0.37421
                        -----------------------------------------
Total Dipole Moment    :     -0.35803      -0.27563       0.89722
                        -----------------------------------------
Magnitude (a.u.)       :      1.00457
Magnitude (Debye)      :      2.55342

                             ****ORCA TERMINATED NORMALLY****
TOTAL RUN TIME: 0 days 0 hours 0 minutes 5 seconds 954 msec
