                         Program Version 3.0.3 - RELEASE   -
|  1> ! RI PBE def2-SVP def2-SVP/J NBO PAL2
|  2> % maxcore 2000
|  3> % output
|  4>     # printlevel mini
|  5>     print[ P_Basis ] 0
|  6>     print[ P_SCFInfo ] 1
|  7>     print[ P_SCFIterInfo ] 1
|  8>     print[ P_OrbEn ] 0
|  9>     print[ P_Cartesian ] 0
| 10> end
| 11> *xyz 0 1
| 12>  C        0.9328890000     0.3649360000    -0.2426400000
| 13>  N        2.3672170000     0.2976570000    -0.2209170000
| 14>  C        3.0166350000     0.5722720000    -1.2780160000
| 15>  N        4.3691410000     0.5069860000    -1.2492820000
| 16>  O        4.9119010000     0.1408750000    -0.0466190000
| 17>  C        5.2300230000     0.7661080000    -2.2830380000
| 18>  C        6.5575470000     0.6929770000    -2.2219130000
| 19>  H        0.5798830000     1.0828570000     0.5035920000
| 20>  H        0.5079460000    -0.6069420000     0.0251260000
| 21>  H        0.5260600000     0.6590300000    -1.2200440000
| 22>  H        2.5929890000     0.8653740000    -2.2418450000
| 23>  H        4.0924240000     0.0225840000     0.4885740000
| 24>  H        4.7044410000     1.0468970000    -3.1891420000
| 25>  H        7.0697910000     0.4118970000    -1.3129150000
| 26>  H        7.1409130000     0.9199030000    -3.1022120000
| 27> *
| 28>
| 29>                          ****END OF INPUT****
 Total Charge           Charge          ....    0
 Multiplicity           Mult            ....    1
 Number of Electrons    NEL             ....   54
 Basis Dimension        Dim             ....  138

MULLIKEN ATOMIC CHARGES
-----------------------
   0 C :    0.082573
   1 N :   -0.287909
   2 C :    0.100514
   3 N :   -0.013601
   4 O :   -0.158614
   5 C :    0.044615
   6 C :   -0.069348
   7 H :    0.035873
   8 H :    0.034194
   9 H :    0.000812
  10 H :    0.002494
  11 H :    0.159511
  12 H :    0.004150
  13 H :    0.039455
  14 H :    0.025280
Sum of atomic charges:   -0.0000000

LOEWDIN ATOMIC CHARGES
----------------------
   0 C :   -0.001470
   1 N :   -0.164201
   2 C :    0.011684
   3 N :    0.121744
   4 O :   -0.049417
   5 C :   -0.014146
   6 C :   -0.119758
   7 H :    0.027592
   8 H :    0.027326
   9 H :    0.008107
  10 H :    0.007678
  11 H :    0.053470
  12 H :    0.031155
  13 H :    0.030369
  14 H :    0.029866

  Mayer bond orders larger than 0.1
B(  0-C ,  1-N ) :   1.0528 B(  0-C ,  7-H ) :   0.9638 B(  0-C ,  8-H ) :   0.9636
B(  0-C ,  9-H ) :   0.9490 B(  1-N ,  2-C ) :   1.6918 B(  1-N , 11-H ) :   0.1576
B(  2-C ,  3-N ) :   1.1639 B(  2-C , 10-H ) :   0.9364 B(  3-N ,  4-O ) :   1.0186
B(  3-N ,  5-C ) :   1.1101 B(  4-O , 11-H ) :   0.8995 B(  5-C ,  6-C ) :   1.8620
B(  5-C , 12-H ) :   0.9469 B(  6-C , 13-H ) :   0.9404 B(  6-C , 14-H ) :   0.9362

FINAL SINGLE POINT ENERGY      -341.217953989824

DIPOLE MOMENT
-------------
                                X             Y             Z
Electronic contribution:      2.87086      -0.44268       1.13838
Nuclear contribution   :     -3.64882       0.61992      -1.62530
                        -----------------------------------------
Total Dipole Moment    :     -0.77796       0.17724      -0.48692
                        -----------------------------------------
Magnitude (a.u.)       :      0.93473
Magnitude (Debye)      :      2.37591

                             ****ORCA TERMINATED NORMALLY****
TOTAL RUN TIME: 0 days 0 hours 0 minutes 6 seconds 613 msec
