                         Program Version 3.0.3 - RELEASE   -
|  1> ! RI PBE def2-SVP def2-SVP/J NBO PAL2
|  2> % maxcore 2000
|  3> % output
|  4>     # printlevel mini
|  5>     print[ P_Basis ] 0
|  6>     print[ P_SCFInfo ] 1
|  7>     print[ P_SCFIterInfo ] 1
|  8>     print[ P_OrbEn ] 0
|  9>     print[ P_Cartesian ] 0
| 10> end
| 11> *xyz 0 1
| 12>  C        0.8950290000    -0.0740840000    -0.0785250000
| 13>  N        2.2991450000     0.2323770000    -0.2141310000
| 14>  C        2.7556750000     0.8143720000    -1.3529920000
| 15>  O        2.0657130000     1.2016890000    -2.2689220000
| 16>  C        3.1977000000    -0.3166900000     0.7462890000
| 17>  C        4.3435060000     0.5004600000     1.2534760000
| 18>  C        3.1794150000     0.2111510000     2.1485470000
| 19>  H        0.3582840000     0.4294200000    -0.8804520000
| 20>  H        0.5223490000     0.2690500000     0.8891530000
| 21>  H        0.7189220000    -1.1525070000    -0.1547170000
| 22>  H        3.8551030000     0.9119660000    -1.3527880000
| 23>  H        3.3738920000    -1.3861880000     0.6446850000
| 24>  H        4.4413980000     1.5128320000     0.8842040000
| 25>  H        5.2819390000    -0.0080940000     1.4326160000
| 26>  H        2.5041580000     1.0318270000     2.3564890000
| 27>  H        3.3028730000    -0.4958600000     2.9586580000
| 28> *
| 29>
| 30>                          ****END OF INPUT****
 Total Charge           Charge          ....    0
 Multiplicity           Mult            ....    1
 Number of Electrons    NEL             ....   54
 Basis Dimension        Dim             ....  143

MULLIKEN ATOMIC CHARGES
-----------------------
   0 C :    0.104449
   1 N :   -0.228671
   2 C :    0.151361
   3 O :   -0.231587
   4 C :   -0.035940
   5 C :   -0.040811
   6 C :   -0.029240
   7 H :    0.048797
   8 H :    0.023911
   9 H :    0.026573
  10 H :   -0.011717
  11 H :    0.036562
  12 H :    0.052514
  13 H :    0.042726
  14 H :    0.047477
  15 H :    0.043595
Sum of atomic charges:   -0.0000000

LOEWDIN ATOMIC CHARGES
----------------------
   0 C :    0.019701
   1 N :   -0.026156
   2 C :    0.047972
   3 O :   -0.183324
   4 C :    0.008778
   5 C :   -0.040249
   6 C :   -0.046364
   7 H :    0.032876
   8 H :    0.022921
   9 H :    0.023507
  10 H :   -0.011185
  11 H :    0.021323
  12 H :    0.033291
  13 H :    0.032576
  14 H :    0.032960
  15 H :    0.031373

  Mayer bond orders larger than 0.1
B(  0-C ,  1-N ) :   0.9867 B(  0-C ,  7-H ) :   0.9503 B(  0-C ,  8-H ) :   0.9658
B(  0-C ,  9-H ) :   0.9641 B(  1-N ,  2-C ) :   1.1651 B(  1-N ,  3-O ) :   0.1020
B(  1-N ,  4-C ) :   1.0137 B(  2-C ,  3-O ) :   2.0218 B(  2-C , 10-H ) :   0.9241
B(  4-C ,  5-C ) :   1.0036 B(  4-C ,  6-C ) :   1.0004 B(  4-C , 11-H ) :   0.9337
B(  5-C ,  6-C ) :   1.0324 B(  5-C , 12-H ) :   0.9481 B(  5-C , 13-H ) :   0.9469
B(  6-C , 14-H ) :   0.9452 B(  6-C , 15-H ) :   0.9457

FINAL SINGLE POINT ENERGY      -325.254898596796

DIPOLE MOMENT
-------------
                                X             Y             Z
Electronic contribution:     -0.14732       1.51542      -5.01819
Nuclear contribution   :      0.49089      -2.11654       6.31011
                        -----------------------------------------
Total Dipole Moment    :      0.34358      -0.60113       1.29192
                        -----------------------------------------
Magnitude (a.u.)       :      1.46576
Magnitude (Debye)      :      3.72567

                             ****ORCA TERMINATED NORMALLY****
TOTAL RUN TIME: 0 days 0 hours 0 minutes 6 seconds 965 msec
