                         Program Version 3.0.3 - RELEASE   -
|  1> ! RI PBE def2-SVP def2-SVP/J NBO PAL2
|  2> % maxcore 2000
|  3> % output
|  4>     # printlevel mini
|  5>     print[ P_Basis ] 0
|  6>     print[ P_SCFInfo ] 1
|  7>     print[ P_SCFIterInfo ] 1
|  8>     print[ P_OrbEn ] 0
|  9>     print[ P_Cartesian ] 0
| 10> end
| 11> *xyz 0 1
| 12>  C        1.2472260000     0.0697770000    -0.3604380000
| 13>  N        2.6792020000     0.1704280000    -0.2339180000
| 14>  C        3.2518820000     0.6740800000     0.8843180000
| 15>  O        2.5875050000     1.0662050000     1.8277170000
| 16>  C        4.7403500000     0.7146490000     0.8778590000
| 17>  C        5.3938220000     1.8600000000     1.6047330000
| 18>  C        5.4334410000     0.4998150000     2.1970870000
| 19>  H        1.0057400000    -0.3561060000    -1.3337700000
| 20>  H        0.7772500000     1.0521760000    -0.2751420000
| 21>  H        0.8282560000    -0.5680350000     0.4213460000
| 22>  H        3.2657690000    -0.1450430000    -0.9842750000
| 23>  H        5.2385530000     0.3419060000    -0.0104140000
| 24>  H        4.7163860000     2.5750180000     2.0537750000
| 25>  H        6.2981630000     2.2691060000     1.1726980000
| 26>  H        4.7833100000     0.3088960000     3.0412970000
| 27>  H        6.3662440000    -0.0493740000     2.1827270000
| 28> *
| 29>
| 30>                          ****END OF INPUT****
 Total Charge           Charge          ....    0
 Multiplicity           Mult            ....    1
 Number of Electrons    NEL             ....   54
 Basis Dimension        Dim             ....  143

MULLIKEN ATOMIC CHARGES
-----------------------
   0 C :    0.087849
   1 N :   -0.146796
   2 C :    0.090485
   3 O :   -0.228434
   4 C :   -0.148128
   5 C :   -0.010897
   6 C :   -0.012433
   7 H :    0.015052
   8 H :    0.040190
   9 H :    0.042013
  10 H :    0.109074
  11 H :   -0.007360
  12 H :    0.052143
  13 H :    0.032043
  14 H :    0.049822
  15 H :    0.035376
Sum of atomic charges:   -0.0000000

LOEWDIN ATOMIC CHARGES
----------------------
   0 C :    0.011878
   1 N :   -0.003065
   2 C :    0.031568
   3 O :   -0.208386
   4 C :   -0.080458
   5 C :   -0.024331
   6 C :   -0.024590
   7 H :    0.025334
   8 H :    0.029628
   9 H :    0.029606
  10 H :    0.070444
  11 H :    0.020487
  12 H :    0.033677
  13 H :    0.027164
  14 H :    0.033328
  15 H :    0.027715

  Mayer bond orders larger than 0.1
B(  0-C ,  1-N ) :   1.0081 B(  0-C ,  7-H ) :   0.9687 B(  0-C ,  8-H ) :   0.9666
B(  0-C ,  9-H ) :   0.9673 B(  1-N ,  2-C ) :   1.2302 B(  1-N , 10-H ) :   0.9321
B(  2-C ,  3-O ) :   2.0610 B(  2-C ,  4-C ) :   0.9732 B(  4-C ,  5-C ) :   0.9722
B(  4-C ,  6-C ) :   0.9762 B(  4-C , 11-H ) :   0.9267 B(  5-C ,  6-C ) :   1.0546
B(  5-C , 12-H ) :   0.9409 B(  5-C , 13-H ) :   0.9469 B(  6-C , 14-H ) :   0.9401
B(  6-C , 15-H ) :   0.9469

FINAL SINGLE POINT ENERGY      -325.271888044325

DIPOLE MOMENT
-------------
                                X             Y             Z
Electronic contribution:     -0.68572       0.41253       0.97330
Nuclear contribution   :      1.09437      -0.93343      -2.18607
                        -----------------------------------------
Total Dipole Moment    :      0.40866      -0.52089      -1.21277
                        -----------------------------------------
Magnitude (a.u.)       :      1.38172
Magnitude (Debye)      :      3.51204

                             ****ORCA TERMINATED NORMALLY****
TOTAL RUN TIME: 0 days 0 hours 0 minutes 7 seconds 461 msec
