                         Program Version 3.0.3 - RELEASE   -
|  1> ! RI PBE def2-SVP def2-SVP/J NBO PAL2
|  2> % maxcore 2000
|  3> % output
|  4>     # printlevel mini
|  5>     print[ P_Basis ] 0
|  6>     print[ P_SCFInfo ] 1
|  7>     print[ P_SCFIterInfo ] 1
|  8>     print[ P_OrbEn ] 0
|  9>     print[ P_Cartesian ] 0
| 10> end
| 11> *xyz 0 1
| 12>  C        3.3667760000    -1.0728140000     0.7327300000
| 13>  N        2.5347900000    -0.1342920000     0.0128000000
| 14>  C        1.1876640000    -0.3769700000    -0.0229360000
| 15>  O        0.6447570000    -1.3202740000     0.5032000000
| 16>  C        3.1288350000     0.9695640000    -0.6108570000
| 17>  C        2.2383120000     1.9225190000    -1.3483170000
| 18>  C        4.4482460000     1.1766250000    -0.5565020000
| 19>  H        2.7178800000    -1.8458050000     1.1364890000
| 20>  H        3.8920280000    -0.5703390000     1.5483620000
| 21>  H        4.1027560000    -1.5232870000     0.0626230000
| 22>  H        0.6244060000     0.3766510000    -0.5877200000
| 23>  H        1.4939330000     2.3816270000    -0.6921180000
| 24>  H        1.7032220000     1.4351660000    -2.1678570000
| 25>  H        2.8485820000     2.7180990000    -1.7720080000
| 26>  H        5.1324380000     0.5206120000    -0.0387980000
| 27>  H        4.8695750000     2.0406190000    -1.0507700000
| 28> *
| 29>
| 30>                          ****END OF INPUT****
 Total Charge           Charge          ....    0
 Multiplicity           Mult            ....    1
 Number of Electrons    NEL             ....   54
 Basis Dimension        Dim             ....  143

MULLIKEN ATOMIC CHARGES
-----------------------
   0 C :    0.077187
   1 N :   -0.206434
   2 C :    0.144458
   3 O :   -0.218787
   4 C :   -0.041272
   5 C :    0.042428
   6 C :   -0.077509
   7 H :    0.050564
   8 H :    0.042375
   9 H :    0.044810
  10 H :   -0.002995
  11 H :    0.051780
  12 H :    0.048900
  13 H :    0.019226
  14 H :    0.015980
  15 H :    0.009289
Sum of atomic charges:   -0.0000000

LOEWDIN ATOMIC CHARGES
----------------------
   0 C :    0.020513
   1 N :    0.004358
   2 C :    0.055445
   3 O :   -0.165221
   4 C :    0.007432
   5 C :   -0.061145
   6 C :   -0.118336
   7 H :    0.033513
   8 H :    0.029171
   9 H :    0.029769
  10 H :   -0.002138
  11 H :    0.039331
  12 H :    0.038500
  13 H :    0.040473
  14 H :    0.021966
  15 H :    0.026368

  Mayer bond orders larger than 0.1
B(  0-C ,  1-N ) :   0.9886 B(  0-C ,  7-H ) :   0.9423 B(  0-C ,  8-H ) :   0.9626
B(  0-C ,  9-H ) :   0.9624 B(  1-N ,  2-C ) :   1.1272 B(  1-N ,  4-C ) :   1.0755
B(  2-C ,  3-O ) :   2.0238 B(  2-C , 10-H ) :   0.9241 B(  4-C ,  5-C ) :   1.0940
B(  4-C ,  6-C ) :   1.8792 B(  5-C , 11-H ) :   0.9375 B(  5-C , 12-H ) :   0.9386
B(  5-C , 13-H ) :   0.9340 B(  6-C , 14-H ) :   0.9363 B(  6-C , 15-H ) :   0.9188

FINAL SINGLE POINT ENERGY      -325.269487354918

DIPOLE MOMENT
-------------
                                X             Y             Z
Electronic contribution:     -4.03424      -3.26335       1.52178
Nuclear contribution   :      4.71031       3.97317      -1.87830
                        -----------------------------------------
Total Dipole Moment    :      0.67607       0.70981      -0.35653
                        -----------------------------------------
Magnitude (a.u.)       :      1.04308
Magnitude (Debye)      :      2.65129

                             ****ORCA TERMINATED NORMALLY****
TOTAL RUN TIME: 0 days 0 hours 0 minutes 7 seconds 424 msec
