                         Program Version 3.0.3 - RELEASE   -
|  1> ! RI PBE def2-SVP def2-SVP/J NBO PAL2
|  2> % maxcore 2000
|  3> % output
|  4>     # printlevel mini
|  5>     print[ P_Basis ] 0
|  6>     print[ P_SCFInfo ] 1
|  7>     print[ P_SCFIterInfo ] 1
|  8>     print[ P_OrbEn ] 0
|  9>     print[ P_Cartesian ] 0
| 10> end
| 11> *xyz 0 1
| 12>  C        1.3156540000     0.4037500000    -0.3672030000
| 13>  N        2.7356090000     0.2623810000    -0.1743600000
| 14>  C        3.2362270000    -0.4718570000     0.8504800000
| 15>  O        2.5084640000    -1.0392630000     1.6465550000
| 16>  C        4.7180520000    -0.5192070000     0.9118000000
| 17>  C        5.3360270000    -1.2043610000     1.8677520000
| 18>  C        6.8060510000    -1.3260500000     2.0329840000
| 19>  H        1.1348410000     1.0287300000    -1.2411360000
| 20>  H        0.8467220000     0.8653470000     0.5051000000
| 21>  H        0.8431750000    -0.5694980000    -0.5202530000
| 22>  H        3.3687600000     0.7141740000    -0.8083290000
| 23>  H        5.2882940000     0.0189270000     0.1574870000
| 24>  H        4.6996690000    -1.7169790000     2.5866280000
| 25>  H        7.3535470000    -0.7776350000     1.2645240000
| 26>  H        7.1124710000    -2.3763930000     1.9949300000
| 27>  H        7.1158580000    -0.9517650000     3.0140490000
| 28> *
| 29>
| 30>                          ****END OF INPUT****
 Total Charge           Charge          ....    0
 Multiplicity           Mult            ....    1
 Number of Electrons    NEL             ....   54
 Basis Dimension        Dim             ....  143

MULLIKEN ATOMIC CHARGES
-----------------------
   0 C :    0.083843
   1 N :   -0.147554
   2 C :    0.074875
   3 O :   -0.226769
   4 C :   -0.061579
   5 C :   -0.077048
   6 C :    0.053402
   7 H :    0.017916
   8 H :    0.042411
   9 H :    0.040819
  10 H :    0.108528
  11 H :   -0.026127
  12 H :    0.020063
  13 H :    0.019267
  14 H :    0.039611
  15 H :    0.038342
Sum of atomic charges:   -0.0000000

LOEWDIN ATOMIC CHARGES
----------------------
   0 C :    0.010502
   1 N :   -0.001807
   2 C :    0.019963
   3 O :   -0.204295
   4 C :   -0.095351
   5 C :    0.012975
   6 C :   -0.062583
   7 H :    0.025484
   8 H :    0.030078
   9 H :    0.029871
  10 H :    0.069875
  11 H :    0.016051
  12 H :    0.033450
  13 H :    0.030464
  14 H :    0.042654
  15 H :    0.042669

  Mayer bond orders larger than 0.1
B(  0-C ,  1-N ) :   1.0124 B(  0-C ,  7-H ) :   0.9690 B(  0-C ,  8-H ) :   0.9656
B(  0-C ,  9-H ) :   0.9651 B(  1-N ,  2-C ) :   1.2107 B(  1-N , 10-H ) :   0.9302
B(  2-C ,  3-O ) :   2.0528 B(  2-C ,  4-C ) :   0.9604 B(  4-C ,  5-C ) :   1.8824
B(  4-C , 11-H ) :   0.9354 B(  5-C ,  6-C ) :   1.0843 B(  5-C , 12-H ) :   0.9408
B(  6-C , 13-H ) :   0.9586 B(  6-C , 14-H ) :   0.9414 B(  6-C , 15-H ) :   0.9401

FINAL SINGLE POINT ENERGY      -325.279045010294

DIPOLE MOMENT
-------------
                                X             Y             Z
Electronic contribution:     -2.89706      -0.43162       0.60759
Nuclear contribution   :      3.57504       1.08081      -1.52329
                        -----------------------------------------
Total Dipole Moment    :      0.67798       0.64918      -0.91570
                        -----------------------------------------
Magnitude (a.u.)       :      1.31134
Magnitude (Debye)      :      3.33316

                             ****ORCA TERMINATED NORMALLY****
TOTAL RUN TIME: 0 days 0 hours 0 minutes 7 seconds 70 msec
