                         Program Version 3.0.3 - RELEASE   -
|  1> ! RI PBE def2-SVP def2-SVP/J NBO PAL2
|  2> % maxcore 2000
|  3> % output
|  4>     # printlevel mini
|  5>     print[ P_Basis ] 0
|  6>     print[ P_SCFInfo ] 1
|  7>     print[ P_SCFIterInfo ] 1
|  8>     print[ P_OrbEn ] 0
|  9>     print[ P_Cartesian ] 0
| 10> end
| 11> *xyz 0 1
| 12>  C        1.3849250000     0.1329940000     0.1550570000
| 13>  N        2.7973380000    -0.1095330000    -0.0026590000
| 14>  C        3.5258600000    -0.6872180000     0.9800160000
| 15>  O        3.0242710000    -1.0258240000     2.0359840000
| 16>  C        5.0048940000    -0.8860400000     0.6857020000
| 17>  C        5.8287790000    -0.0984770000     1.6977110000
| 18>  C        5.3333410000    -2.3732880000     0.7419890000
| 19>  H        1.0028630000     0.6118420000    -0.7459110000
| 20>  H        1.1943850000     0.7821170000     1.0126470000
| 21>  H        0.8435480000    -0.8014840000     0.3196470000
| 22>  H        3.2524840000     0.1522470000    -0.8576110000
| 23>  H        5.2249600000    -0.5108480000    -0.3211840000
| 24>  H        5.5876600000    -0.4302290000     2.7093580000
| 25>  H        5.6264420000     0.9735140000     1.6357170000
| 26>  H        6.8963690000    -0.2541690000     1.5253970000
| 27>  H        5.0770870000    -2.7717360000     1.7254470000
| 28>  H        6.3994720000    -2.5361130000     0.5671820000
| 29>  H        4.7749120000    -2.9383760000    -0.0081900000
| 30> *
| 31>
| 32>                          ****END OF INPUT****
 Total Charge           Charge          ....    0
 Multiplicity           Mult            ....    1
 Number of Electrons    NEL             ....   56
 Basis Dimension        Dim             ....  153

MULLIKEN ATOMIC CHARGES
-----------------------
   0 C :    0.084408
   1 N :   -0.144241
   2 C :    0.032213
   3 O :   -0.228990
   4 C :   -0.114217
   5 C :    0.009155
   6 C :    0.023153
   7 H :    0.018934
   8 H :    0.041722
   9 H :    0.040933
  10 H :    0.110446
  11 H :   -0.023696
  12 H :    0.038730
  13 H :    0.021635
  14 H :    0.021074
  15 H :    0.037315
  16 H :    0.016698
  17 H :    0.014727
Sum of atomic charges:   -0.0000000

LOEWDIN ATOMIC CHARGES
----------------------
   0 C :    0.010348
   1 N :   -0.002457
   2 C :    0.031706
   3 O :   -0.200297
   4 C :   -0.071698
   5 C :   -0.052860
   6 C :   -0.050082
   7 H :    0.025736
   8 H :    0.029891
   9 H :    0.029788
  10 H :    0.069569
  11 H :    0.014323
  12 H :    0.032246
  13 H :    0.026372
  14 H :    0.025519
  15 H :    0.031842
  16 H :    0.024809
  17 H :    0.025245

  Mayer bond orders larger than 0.1
B(  0-C ,  1-N ) :   1.0084 B(  0-C ,  7-H ) :   0.9694 B(  0-C ,  8-H ) :   0.9662
B(  0-C ,  9-H ) :   0.9665 B(  1-N ,  2-C ) :   1.2289 B(  1-N , 10-H ) :   0.9309
B(  2-C ,  3-O ) :   2.0612 B(  2-C ,  4-C ) :   0.9317 B(  4-C ,  5-C ) :   1.0732
B(  4-C ,  6-C ) :   1.0733 B(  4-C , 11-H ) :   0.9040 B(  5-C , 12-H ) :   0.9599
B(  5-C , 13-H ) :   0.9612 B(  5-C , 14-H ) :   0.9621 B(  6-C , 15-H ) :   0.9607
B(  6-C , 16-H ) :   0.9610 B(  6-C , 17-H ) :   0.9604

FINAL SINGLE POINT ENERGY      -326.494392062292

DIPOLE MOMENT
-------------
                                X             Y             Z
Electronic contribution:     -3.41297       0.33100       0.94875
Nuclear contribution   :      3.54370       0.17235      -2.21162
                        -----------------------------------------
Total Dipole Moment    :      0.13073       0.50335      -1.26286
                        -----------------------------------------
Magnitude (a.u.)       :      1.36575
Magnitude (Debye)      :      3.47147

                             ****ORCA TERMINATED NORMALLY****
TOTAL RUN TIME: 0 days 0 hours 0 minutes 8 seconds 310 msec
