                         Program Version 3.0.3 - RELEASE   -
|  1> ! RI PBE def2-SVP def2-SVP/J NBO PAL2
|  2> % maxcore 2000
|  3> % output
|  4>     # printlevel mini
|  5>     print[ P_Basis ] 0
|  6>     print[ P_SCFInfo ] 1
|  7>     print[ P_SCFIterInfo ] 1
|  8>     print[ P_OrbEn ] 0
|  9>     print[ P_Cartesian ] 0
| 10> end
| 11> *xyz 0 1
| 12>  C        1.7341690000    -2.2890480000    -1.7519420000
| 13>  N        3.1383980000    -2.2139850000    -1.4466630000
| 14>  C        3.7523510000    -1.0520710000    -1.1156690000
| 15>  O        3.1678480000     0.0132110000    -1.0335080000
| 16>  C        5.2264550000    -1.1478080000    -0.8471470000
| 17>  C        5.7335310000    -0.2072350000     0.1941570000
| 18>  C        6.0108550000    -1.9540630000    -1.5579720000
| 19>  H        1.5664790000    -2.6808560000    -2.7589290000
| 20>  H        1.3303070000    -1.2795100000    -1.6935240000
| 21>  H        1.2044080000    -2.9225920000    -1.0353390000
| 22>  H        3.6776750000    -3.0593690000    -1.3907930000
| 23>  H        5.2862160000    -0.4252830000     1.1683880000
| 24>  H        5.4408890000     0.8138480000    -0.0591700000
| 25>  H        6.8185170000    -0.2646670000     0.2838050000
| 26>  H        5.6245140000    -2.5810530000    -2.3538480000
| 27>  H        7.0820970000    -1.9830400000    -1.3910470000
| 28> *
| 29>
| 30>                          ****END OF INPUT****
 Total Charge           Charge          ....    0
 Multiplicity           Mult            ....    1
 Number of Electrons    NEL             ....   54
 Basis Dimension        Dim             ....  143

MULLIKEN ATOMIC CHARGES
-----------------------
   0 C :    0.069529
   1 N :   -0.148816
   2 C :    0.084905
   3 O :   -0.218007
   4 C :   -0.178245
   5 C :    0.067354
   6 C :   -0.041406
   7 H :    0.030664
   8 H :    0.050981
   9 H :    0.034602
  10 H :    0.109828
  11 H :    0.031602
  12 H :    0.055298
  13 H :    0.015431
  14 H :    0.013901
  15 H :    0.022379
Sum of atomic charges:    0.0000000

LOEWDIN ATOMIC CHARGES
----------------------
   0 C :    0.009464
   1 N :    0.003859
   2 C :    0.027813
   3 O :   -0.191397
   4 C :   -0.051394
   5 C :   -0.051174
   6 C :   -0.063990
   7 H :    0.024168
   8 H :    0.036092
   9 H :    0.024426
  10 H :    0.070588
  11 H :    0.040843
  12 H :    0.047446
  13 H :    0.029853
  14 H :    0.018380
  15 H :    0.025021

  Mayer bond orders larger than 0.1
B(  0-C ,  1-N ) :   1.0081 B(  0-C ,  7-H ) :   0.9691 B(  0-C ,  8-H ) :   0.9508
B(  0-C ,  9-H ) :   0.9711 B(  1-N ,  2-C ) :   1.2311 B(  1-N ,  3-O ) :   0.1018
B(  1-N , 10-H ) :   0.9243 B(  2-C ,  3-O ) :   2.0469 B(  2-C ,  4-C ) :   0.9171
B(  4-C ,  5-C ) :   1.0922 B(  4-C ,  6-C ) :   1.9541 B(  5-C , 11-H ) :   0.9426
B(  5-C , 12-H ) :   0.9350 B(  5-C , 13-H ) :   0.9516 B(  6-C , 14-H ) :   0.9383
B(  6-C , 15-H ) :   0.9314

FINAL SINGLE POINT ENERGY      -325.276545215324

DIPOLE MOMENT
-------------
                                X             Y             Z
Electronic contribution:     -1.14995       1.60993      -0.51575
Nuclear contribution   :      1.36078      -2.81815       0.46118
                        -----------------------------------------
Total Dipole Moment    :      0.21084      -1.20823      -0.05457
                        -----------------------------------------
Magnitude (a.u.)       :      1.22770
Magnitude (Debye)      :      3.12056

                             ****ORCA TERMINATED NORMALLY****
TOTAL RUN TIME: 0 days 0 hours 0 minutes 7 seconds 26 msec
