                         Program Version 3.0.3 - RELEASE   -
|  1> ! RI PBE def2-SVP def2-SVP/J NBO PAL2
|  2> % maxcore 2000
|  3> % output
|  4>     # printlevel mini
|  5>     print[ P_Basis ] 0
|  6>     print[ P_SCFInfo ] 1
|  7>     print[ P_SCFIterInfo ] 1
|  8>     print[ P_OrbEn ] 0
|  9>     print[ P_Cartesian ] 0
| 10> end
| 11> *xyz 0 1
| 12>  C        2.8667080000    -0.5116140000     1.2059880000
| 13>  N        2.3277510000    -0.0739390000    -0.0531970000
| 14>  C        3.0134270000     0.3366800000    -1.1489050000
| 15>  O        2.4588190000     0.6875420000    -2.1728990000
| 16>  C        4.4622170000     0.3360810000    -1.0351000000
| 17>  C        5.6652980000     0.3696530000    -1.0377660000
| 18>  C        7.1118590000     0.4185100000    -1.0602870000
| 19>  H        2.5252170000     0.1252320000     2.0271460000
| 20>  H        3.9537280000    -0.4590090000     1.1621000000
| 21>  H        2.5815060000    -1.5450530000     1.4234950000
| 22>  H        1.3278530000    -0.0577980000    -0.1785350000
| 23>  H        7.5416880000    -0.0867300000    -0.1923570000
| 24>  H        7.4586500000     1.4549310000    -1.0577500000
| 25>  H        7.4980690000    -0.0613760000    -1.9628240000
| 26> *
| 27>
| 28>                          ****END OF INPUT****
 Total Charge           Charge          ....    0
 Multiplicity           Mult            ....    1
 Number of Electrons    NEL             ....   52
 Basis Dimension        Dim             ....  133

MULLIKEN ATOMIC CHARGES
-----------------------
   0 C :    0.082828
   1 N :   -0.154111
   2 C :    0.089090
   3 O :   -0.194576
   4 C :   -0.101409
   5 C :   -0.183464
   6 C :    0.058284
   7 H :    0.033151
   8 H :    0.050085
   9 H :    0.031736
  10 H :    0.123008
  11 H :    0.050651
  12 H :    0.056443
  13 H :    0.058284
Sum of atomic charges:   -0.0000000

LOEWDIN ATOMIC CHARGES
----------------------
   0 C :    0.010931
   1 N :    0.006143
   2 C :    0.008949
   3 O :   -0.178087
   4 C :   -0.090233
   5 C :   -0.024476
   6 C :   -0.064958
   7 H :    0.024765
   8 H :    0.038384
   9 H :    0.024403
  10 H :    0.076790
  11 H :    0.052005
  12 H :    0.057726
  13 H :    0.057659

  Mayer bond orders larger than 0.1
B(  0-C ,  1-N ) :   1.0226 B(  0-C ,  7-H ) :   0.9637 B(  0-C ,  8-H ) :   0.9509
B(  0-C ,  9-H ) :   0.9637 B(  1-N ,  2-C ) :   1.2057 B(  1-N ,  3-O ) :   0.1031
B(  1-N , 10-H ) :   0.9182 B(  2-C ,  3-O ) :   2.0939 B(  2-C ,  4-C ) :   0.8462
B(  4-C ,  5-C ) :   2.6250 B(  5-C ,  6-C ) :   1.1346 B(  6-C , 11-H ) :   0.9332
B(  6-C , 12-H ) :   0.9269 B(  6-C , 13-H ) :   0.9269

FINAL SINGLE POINT ENERGY      -324.033321577898

DIPOLE MOMENT
-------------
                                X             Y             Z
Electronic contribution:     -4.24877       1.53122      -4.60297
Nuclear contribution   :      4.93830      -1.98735       5.94459
                        -----------------------------------------
Total Dipole Moment    :      0.68953      -0.45613       1.34163
                        -----------------------------------------
Magnitude (a.u.)       :      1.57590
Magnitude (Debye)      :      4.00563

                             ****ORCA TERMINATED NORMALLY****
TOTAL RUN TIME: 0 days 0 hours 0 minutes 6 seconds 525 msec
