                         Program Version 3.0.3 - RELEASE   -
|  1> ! RI PBE def2-SVP def2-SVP/J NBO PAL2
|  2> % maxcore 2000
|  3> % output
|  4>     # printlevel mini
|  5>     print[ P_Basis ] 0
|  6>     print[ P_SCFInfo ] 1
|  7>     print[ P_SCFIterInfo ] 1
|  8>     print[ P_OrbEn ] 0
|  9>     print[ P_Cartesian ] 0
| 10> end
| 11> *xyz 0 1
| 12>  C        1.2143950000     1.0644610000     0.1324600000
| 13>  N        2.5747290000     0.6209810000     0.2956250000
| 14>  C        3.1452120000    -0.2997330000    -0.5175410000
| 15>  O        2.5655140000    -0.8160960000    -1.4520790000
| 16>  C        4.5896520000    -0.6447560000    -0.1922500000
| 17>  C        4.7681850000    -2.1187090000    -0.0253280000
| 18>  C        5.3730560000    -2.6902220000     1.0054840000
| 19>  H        1.1657380000     2.1466800000    -0.0130060000
| 20>  H        0.6007900000     0.7962150000     0.9967520000
| 21>  H        0.8130260000     0.5695620000    -0.7504900000
| 22>  H        3.1154800000     0.9785750000     1.0623850000
| 23>  H        4.9550660000    -0.1106670000     0.6889660000
| 24>  H        5.1750730000    -0.3021660000    -1.0540810000
| 25>  H        4.3517570000    -2.7259190000    -0.8240810000
| 26>  H        5.7919310000    -2.1051760000     1.8189170000
| 27>  H        5.4754950000    -3.7669290000     1.0722470000
| 28> *
| 29>
| 30>                          ****END OF INPUT****
 Total Charge           Charge          ....    0
 Multiplicity           Mult            ....    1
 Number of Electrons    NEL             ....   54
 Basis Dimension        Dim             ....  143

MULLIKEN ATOMIC CHARGES
-----------------------
   0 C :    0.061467
   1 N :   -0.148895
   2 C :    0.006103
   3 O :   -0.222594
   4 C :    0.088213
   5 C :   -0.085509
   6 C :   -0.040391
   7 H :    0.035283
   8 H :    0.036731
   9 H :    0.051517
  10 H :    0.109807
  11 H :   -0.013116
  12 H :    0.053939
  13 H :    0.025805
  14 H :    0.011871
  15 H :    0.029768
Sum of atomic charges:   -0.0000000

LOEWDIN ATOMIC CHARGES
----------------------
   0 C :    0.007528
   1 N :   -0.001090
   2 C :    0.030099
   3 O :   -0.197578
   4 C :   -0.064115
   5 C :   -0.018643
   6 C :   -0.069778
   7 H :    0.024844
   8 H :    0.024765
   9 H :    0.036889
  10 H :    0.070774
  11 H :    0.021981
  12 H :    0.055972
  13 H :    0.032799
  14 H :    0.018872
  15 H :    0.026681

  Mayer bond orders larger than 0.1
B(  0-C ,  1-N ) :   1.0061 B(  0-C ,  7-H ) :   0.9708 B(  0-C ,  8-H ) :   0.9716
B(  0-C ,  9-H ) :   0.9504 B(  1-N ,  2-C ) :   1.2348 B(  1-N ,  3-O ) :   0.1007
B(  1-N , 10-H ) :   0.9270 B(  2-C ,  3-O ) :   2.0463 B(  2-C ,  4-C ) :   0.9475
B(  4-C ,  5-C ) :   1.0605 B(  4-C , 11-H ) :   0.9206 B(  4-C , 12-H ) :   0.8921
B(  5-C ,  6-C ) :   2.0138 B(  5-C , 13-H ) :   0.9550 B(  6-C , 14-H ) :   0.9443
B(  6-C , 15-H ) :   0.9486

FINAL SINGLE POINT ENERGY      -325.269760963798

DIPOLE MOMENT
-------------
                                X             Y             Z
Electronic contribution:     -0.48249      -0.44507      -2.74355
Nuclear contribution   :      0.68566       1.32055       3.75134
                        -----------------------------------------
Total Dipole Moment    :      0.20317       0.87548       1.00778
                        -----------------------------------------
Magnitude (a.u.)       :      1.35032
Magnitude (Debye)      :      3.43225

                             ****ORCA TERMINATED NORMALLY****
TOTAL RUN TIME: 0 days 0 hours 0 minutes 7 seconds 170 msec
