                         Program Version 3.0.3 - RELEASE   -
|  1> ! RI PBE def2-SVP def2-SVP/J NBO PAL2
|  2> % maxcore 2000
|  3> % output
|  4>     # printlevel mini
|  5>     print[ P_Basis ] 0
|  6>     print[ P_SCFInfo ] 1
|  7>     print[ P_SCFIterInfo ] 1
|  8>     print[ P_OrbEn ] 0
|  9>     print[ P_Cartesian ] 0
| 10> end
| 11> *xyz 0 1
| 12>  C        1.2266750000    -0.5018070000    -0.0310090000
| 13>  N        2.5363730000     0.0343000000     0.2306390000
| 14>  C        3.1663160000     0.8595050000    -0.6253530000
| 15>  O        2.7107130000     1.2336410000    -1.6865040000
| 16>  C        4.5551280000     1.3376530000    -0.1917280000
| 17>  C        5.0438840000     0.8563110000     1.0850890000
| 18>  C        5.4223840000     0.4413250000     2.1469490000
| 19>  H        1.2483480000    -1.5938610000    -0.0721770000
| 20>  H        0.8971230000    -0.1179720000    -0.9952550000
| 21>  H        0.5130170000    -0.1924160000     0.7369310000
| 22>  H        3.0170390000    -0.2059110000     1.0827560000
| 23>  H        4.5181960000     2.4307950000    -0.1979520000
| 24>  H        5.2413350000     1.0525370000    -0.9943470000
| 25>  H        5.7763780000     0.0847100000     3.0855510000
| 26> *
| 27>
| 28>                          ****END OF INPUT****
 Total Charge           Charge          ....    0
 Multiplicity           Mult            ....    1
 Number of Electrons    NEL             ....   52
 Basis Dimension        Dim             ....  133

MULLIKEN ATOMIC CHARGES
-----------------------
   0 C :    0.066181
   1 N :   -0.135561
   2 C :   -0.018115
   3 O :   -0.222594
   4 C :    0.141242
   5 C :    0.265252
   6 C :   -0.485166
   7 H :    0.039852
   8 H :    0.047237
   9 H :    0.037156
  10 H :    0.121669
  11 H :    0.070257
  12 H :    0.067118
  13 H :    0.005474
Sum of atomic charges:   -0.0000000

LOEWDIN ATOMIC CHARGES
----------------------
   0 C :    0.011122
   1 N :    0.007290
   2 C :    0.027569
   3 O :   -0.195314
   4 C :   -0.072042
   5 C :   -0.032171
   6 C :   -0.086922
   7 H :    0.026442
   8 H :    0.035789
   9 H :    0.025895
  10 H :    0.074826
  11 H :    0.070282
  12 H :    0.069812
  13 H :    0.037421

  Mayer bond orders larger than 0.1
B(  0-C ,  1-N ) :   1.0058 B(  0-C ,  7-H ) :   0.9715 B(  0-C ,  8-H ) :   0.9516
B(  0-C ,  9-H ) :   0.9711 B(  1-N ,  2-C ) :   1.2993 B(  1-N ,  3-O ) :   0.1115
B(  1-N , 10-H ) :   0.8971 B(  2-C ,  3-O ) :   2.0358 B(  2-C ,  4-C ) :   0.9006
B(  4-C ,  5-C ) :   1.0195 B(  4-C , 11-H ) :   0.8814 B(  4-C , 12-H ) :   0.8803
B(  5-C ,  6-C ) :   2.3459 B(  5-C , 13-H ) :  -0.1086 B(  6-C , 13-H ) :   1.0994

FINAL SINGLE POINT ENERGY      -324.029318568674

DIPOLE MOMENT
-------------
                                X             Y             Z
Electronic contribution:      2.73513       1.94993      -0.88924
Nuclear contribution   :     -2.66496      -2.52330       1.94626
                        -----------------------------------------
Total Dipole Moment    :      0.07017      -0.57337       1.05702
                        -----------------------------------------
Magnitude (a.u.)       :      1.20457
Magnitude (Debye)      :      3.06176

                             ****ORCA TERMINATED NORMALLY****
TOTAL RUN TIME: 0 days 0 hours 0 minutes 6 seconds 501 msec
