                         Program Version 3.0.3 - RELEASE   -
|  1> ! RI PBE def2-SVP def2-SVP/J NBO PAL2
|  2> % maxcore 2000
|  3> % output
|  4>     # printlevel mini
|  5>     print[ P_Basis ] 0
|  6>     print[ P_SCFInfo ] 1
|  7>     print[ P_SCFIterInfo ] 1
|  8>     print[ P_OrbEn ] 0
|  9>     print[ P_Cartesian ] 0
| 10> end
| 11> *xyz 0 1
| 12>  C        1.1796130000     0.1777010000     0.2103590000
| 13>  N        2.5810260000     0.0738050000    -0.1376230000
| 14>  C        2.9687480000     0.5259240000    -1.3774270000
| 15>  O        2.2198030000     1.0016080000    -2.1939790000
| 16>  C        3.4775750000    -0.4768740000     0.7907340000
| 17>  C        4.9232020000    -0.5724570000     0.4041460000
| 18>  N        3.1348940000    -0.8981130000     1.9376500000
| 19>  H        0.6656460000     0.6259320000    -0.6363970000
| 20>  H        1.0446360000     0.8111680000     1.0903620000
| 21>  H        0.7550540000    -0.8094710000     0.4082330000
| 22>  H        4.0437330000     0.4118070000    -1.5656700000
| 23>  H        5.3564470000     0.4090290000     0.1973750000
| 24>  H        5.0692860000    -1.1991000000    -0.4788890000
| 25>  H        5.4484670000    -1.0195770000     1.2443110000
| 26>  H        2.1390810000    -0.7942710000     2.1135050000
| 27> *
| 28>
| 29>                          ****END OF INPUT****
 Total Charge           Charge          ....    0
 Multiplicity           Mult            ....    1
 Number of Electrons    NEL             ....   54
 Basis Dimension        Dim             ....  138

MULLIKEN ATOMIC CHARGES
-----------------------
   0 C :    0.057422
   1 N :   -0.201820
   2 C :    0.159586
   3 O :   -0.203662
   4 C :   -0.155836
   5 C :    0.045541
   6 N :   -0.066677
   7 H :    0.057692
   8 H :    0.049049
   9 H :    0.049450
  10 H :   -0.001845
  11 H :    0.050169
  12 H :    0.049904
  13 H :    0.041154
  14 H :    0.069872
Sum of atomic charges:   -0.0000000

LOEWDIN ATOMIC CHARGES
----------------------
   0 C :    0.012285
   1 N :   -0.017328
   2 C :    0.065095
   3 O :   -0.150898
   4 C :    0.020451
   5 C :   -0.071058
   6 N :   -0.124504
   7 H :    0.037557
   8 H :    0.029866
   9 H :    0.029841
  10 H :   -0.000177
  11 H :    0.040760
  12 H :    0.040778
  13 H :    0.047772
  14 H :    0.039559

  Mayer bond orders larger than 0.1
B(  0-C ,  1-N ) :   0.9740 B(  0-C ,  7-H ) :   0.9382 B(  0-C ,  8-H ) :   0.9632
B(  0-C ,  9-H ) :   0.9634 B(  1-N ,  2-C ) :   1.1064 B(  1-N ,  4-C ) :   1.0385
B(  2-C ,  3-O ) :   2.0421 B(  2-C , 10-H ) :   0.9242 B(  4-C ,  5-C ) :   1.0593
B(  4-C ,  6-N ) :   2.0713 B(  5-C , 11-H ) :   0.9388 B(  5-C , 12-H ) :   0.9382
B(  5-C , 13-H ) :   0.9326 B(  6-N , 14-H ) :   0.9371

FINAL SINGLE POINT ENERGY      -341.305849986065

DIPOLE MOMENT
-------------
                                X             Y             Z
Electronic contribution:     -1.15366       1.25874      -2.50281
Nuclear contribution   :      1.17946      -1.36341       2.74238
                        -----------------------------------------
Total Dipole Moment    :      0.02580      -0.10467       0.23957
                        -----------------------------------------
Magnitude (a.u.)       :      0.26271
Magnitude (Debye)      :      0.66776

                             ****ORCA TERMINATED NORMALLY****
TOTAL RUN TIME: 0 days 0 hours 0 minutes 6 seconds 937 msec
