                         Program Version 3.0.3 - RELEASE   -
|  1> ! RI PBE def2-SVP def2-SVP/J NBO PAL2
|  2> % maxcore 2000
|  3> % output
|  4>     # printlevel mini
|  5>     print[ P_Basis ] 0
|  6>     print[ P_SCFInfo ] 1
|  7>     print[ P_SCFIterInfo ] 1
|  8>     print[ P_OrbEn ] 0
|  9>     print[ P_Cartesian ] 0
| 10> end
| 11> *xyz 0 1
| 12>  C        0.9414300000    -1.2712990000     0.6003430000
| 13>  N        2.3275020000    -1.0011510000     0.3211890000
| 14>  C        3.2833060000    -1.9641450000     0.3467040000
| 15>  O        3.0339710000    -3.1346900000     0.5624100000
| 16>  C        4.6956570000    -1.4702050000     0.1126920000
| 17>  C        5.5401920000    -2.4861310000    -0.6329610000
| 18>  N        6.9273660000    -2.0502140000    -0.6776890000
| 19>  H        0.3028270000    -0.9647620000    -0.2321630000
| 20>  H        0.6073230000    -0.7596890000     1.5074820000
| 21>  H        0.8408050000    -2.3457350000     0.7458790000
| 22>  H        2.6144490000    -0.0542660000     0.1485670000
| 23>  H        5.1539670000    -1.2894340000     1.0911020000
| 24>  H        4.6894000000    -0.5102750000    -0.4160500000
| 25>  H        5.0955140000    -2.6673070000    -1.6234850000
| 26>  H        5.4861790000    -3.4320900000    -0.0916570000
| 27>  H        7.0321060000    -1.2448500000    -1.2833500000
| 28>  H        7.5148170000    -2.7800470000    -1.0600130000
| 29> *
| 30>
| 31>                          ****END OF INPUT****
 Total Charge           Charge          ....    0
 Multiplicity           Mult            ....    1
 Number of Electrons    NEL             ....   56
 Basis Dimension        Dim             ....  148

MULLIKEN ATOMIC CHARGES
-----------------------
   0 C :    0.068390
   1 N :   -0.147545
   2 C :    0.009751
   3 O :   -0.227275
   4 C :    0.012645
   5 C :    0.039895
   6 N :   -0.206673
   7 H :    0.032157
   8 H :    0.029855
   9 H :    0.051609
  10 H :    0.106735
  11 H :    0.041152
  12 H :   -0.011840
  13 H :   -0.002782
  14 H :    0.028803
  15 H :    0.084706
  16 H :    0.090417
Sum of atomic charges:    0.0000000

LOEWDIN ATOMIC CHARGES
----------------------
   0 C :    0.007585
   1 N :   -0.005055
   2 C :    0.028392
   3 O :   -0.197788
   4 C :   -0.075011
   5 C :    0.010877
   6 N :   -0.113491
   7 H :    0.023436
   8 H :    0.022851
   9 H :    0.036314
  10 H :    0.069136
  11 H :    0.045617
  12 H :    0.016662
  13 H :    0.001937
  14 H :    0.026998
  15 H :    0.047812
  16 H :    0.053728

  Mayer bond orders larger than 0.1
B(  0-C ,  1-N ) :   1.0070 B(  0-C ,  7-H ) :   0.9713 B(  0-C ,  8-H ) :   0.9707
B(  0-C ,  9-H ) :   0.9508 B(  1-N ,  2-C ) :   1.2269 B(  1-N , 10-H ) :   0.9278
B(  2-C ,  3-O ) :   2.0406 B(  2-C ,  4-C ) :   0.9600 B(  4-C ,  5-C ) :   1.0924
B(  4-C , 11-H ) :   0.8951 B(  4-C , 12-H ) :   0.9231 B(  5-C ,  6-N ) :   1.0972
B(  5-C , 13-H ) :   0.9391 B(  5-C , 14-H ) :   0.9262 B(  6-N , 15-H ) :   0.9706
B(  6-N , 16-H ) :   0.9647

FINAL SINGLE POINT ENERGY      -342.507819966647

DIPOLE MOMENT
-------------
                                X             Y             Z
Electronic contribution:     -1.07303      -1.65060       1.24627
Nuclear contribution   :      0.94015       2.88290      -1.86060
                        -----------------------------------------
Total Dipole Moment    :     -0.13288       1.23231      -0.61433
                        -----------------------------------------
Magnitude (a.u.)       :      1.38334
Magnitude (Debye)      :      3.51618

                             ****ORCA TERMINATED NORMALLY****
TOTAL RUN TIME: 0 days 0 hours 0 minutes 7 seconds 691 msec
