                         Program Version 3.0.3 - RELEASE   -
|  1> ! RI PBE def2-SVP def2-SVP/J NBO PAL2
|  2> % maxcore 2000
|  3> % output
|  4>     # printlevel mini
|  5>     print[ P_Basis ] 0
|  6>     print[ P_SCFInfo ] 1
|  7>     print[ P_SCFIterInfo ] 1
|  8>     print[ P_OrbEn ] 0
|  9>     print[ P_Cartesian ] 0
| 10> end
| 11> *xyz 0 1
| 12>  C        1.0753360000     0.2321680000     0.0248670000
| 13>  N        2.5071640000     0.1289540000    -0.0696510000
| 14>  C        3.1032230000    -0.9986530000    -0.5447520000
| 15>  O        2.4327820000    -1.9574020000    -0.9049850000
| 16>  C        4.5680230000    -0.9602980000    -0.5837410000
| 17>  C        5.2270850000    -2.0379250000    -1.0410800000
| 18>  N        6.5637960000    -2.1957510000    -1.1539980000
| 19>  H        0.8152510000     1.2111350000     0.4274640000
| 20>  H        0.6662670000    -0.5410410000     0.6801680000
| 21>  H        0.6056580000     0.1153460000    -0.9551120000
| 22>  H        3.0785600000     0.9010670000     0.2191680000
| 23>  H        5.0964860000    -0.0732370000    -0.2470260000
| 24>  H        4.6258630000    -2.8852700000    -1.3591240000
| 25>  H        7.2007260000    -1.4687930000    -0.8860490000
| 26>  H        6.9500890000    -3.0469900000    -1.5108480000
| 27> *
| 28>
| 29>                          ****END OF INPUT****
 Total Charge           Charge          ....    0
 Multiplicity           Mult            ....    1
 Number of Electrons    NEL             ....   54
 Basis Dimension        Dim             ....  138

MULLIKEN ATOMIC CHARGES
-----------------------
   0 C :    0.094124
   1 N :   -0.152748
   2 C :    0.075079
   3 O :   -0.255389
   4 C :   -0.121061
   5 C :    0.035796
   6 N :   -0.055688
   7 H :    0.007068
   8 H :    0.035060
   9 H :    0.033129
  10 H :    0.099834
  11 H :   -0.043855
  12 H :    0.015493
  13 H :    0.111636
  14 H :    0.121522
Sum of atomic charges:   -0.0000000

LOEWDIN ATOMIC CHARGES
----------------------
   0 C :    0.009663
   1 N :   -0.014503
   2 C :    0.021836
   3 O :   -0.231840
   4 C :   -0.181552
   5 C :    0.041143
   6 N :    0.024795
   7 H :    0.021763
   8 H :    0.026144
   9 H :    0.025900
  10 H :    0.065460
  11 H :    0.009636
  12 H :    0.033261
  13 H :    0.072988
  14 H :    0.075305

  Mayer bond orders larger than 0.1
B(  0-C ,  1-N ) :   1.0176 B(  0-C ,  7-H ) :   0.9683 B(  0-C ,  8-H ) :   0.9661
B(  0-C ,  9-H ) :   0.9657 B(  1-N ,  2-C ) :   1.2012 B(  1-N , 10-H ) :   0.9312
B(  2-C ,  3-O ) :   2.0117 B(  2-C ,  4-C ) :   1.0155 B(  4-C ,  5-C ) :   1.6947
B(  4-C , 11-H ) :   0.9373 B(  5-C ,  6-N ) :   1.2908 B(  5-C , 12-H ) :   0.9261
B(  6-N , 13-H ) :   0.9561 B(  6-N , 14-H ) :   0.9555

FINAL SINGLE POINT ENERGY      -341.310538968411

DIPOLE MOMENT
-------------
                                X             Y             Z
Electronic contribution:      1.49433      -2.19962      -0.93761
Nuclear contribution   :      0.01766       2.90318       1.16444
                        -----------------------------------------
Total Dipole Moment    :      1.51199       0.70356       0.22683
                        -----------------------------------------
Magnitude (a.u.)       :      1.68302
Magnitude (Debye)      :      4.27790

                             ****ORCA TERMINATED NORMALLY****
TOTAL RUN TIME: 0 days 0 hours 0 minutes 7 seconds 142 msec
