                         Program Version 3.0.3 - RELEASE   -
|  1> ! RI PBE def2-SVP def2-SVP/J NBO PAL2
|  2> % maxcore 2000
|  3> % output
|  4>     # printlevel mini
|  5>     print[ P_Basis ] 0
|  6>     print[ P_SCFInfo ] 1
|  7>     print[ P_SCFIterInfo ] 1
|  8>     print[ P_OrbEn ] 0
|  9>     print[ P_Cartesian ] 0
| 10> end
| 11> *xyz 0 1
| 12>  C        1.6240580000    -0.1600980000    -0.7757710000
| 13>  N        2.8222630000     0.2401510000    -0.0810790000
| 14>  C        3.1959760000    -0.3139030000     1.0853240000
| 15>  O        2.5903680000    -1.1853620000     1.6699480000
| 16>  C        4.4964500000     0.2180970000     1.7033260000
| 17>  C        5.1703310000     1.2589680000     0.9536120000
| 18>  N        5.6581520000     2.0814530000     0.3143080000
| 19>  H        1.8605290000    -0.5527650000    -1.7673720000
| 20>  H        0.9355100000     0.6812190000    -0.8829870000
| 21>  H        1.1427440000    -0.9408740000    -0.1896320000
| 22>  H        3.4024930000     0.9602850000    -0.4801920000
| 23>  H        5.1641600000    -0.6370950000     1.8318630000
| 24>  H        4.2509570000     0.5822240000     2.7037620000
| 25> *
| 26>
| 27>                          ****END OF INPUT****
 Total Charge           Charge          ....    0
 Multiplicity           Mult            ....    1
 Number of Electrons    NEL             ....   52
 Basis Dimension        Dim             ....  128

MULLIKEN ATOMIC CHARGES
-----------------------
   0 C :    0.061129
   1 N :   -0.127316
   2 C :   -0.022726
   3 O :   -0.209317
   4 C :    0.153218
   5 C :   -0.331137
   6 N :    0.040269
   7 H :    0.042500
   8 H :    0.045965
   9 H :    0.056630
  10 H :    0.128585
  11 H :    0.082735
  12 H :    0.079464
Sum of atomic charges:    0.0000000

LOEWDIN ATOMIC CHARGES
----------------------
   0 C :    0.014148
   1 N :    0.012047
   2 C :    0.028278
   3 O :   -0.184291
   4 C :   -0.080890
   5 C :   -0.056516
   6 N :   -0.065748
   7 H :    0.029466
   8 H :    0.029780
   9 H :    0.038220
  10 H :    0.079505
  11 H :    0.078152
  12 H :    0.077848

  Mayer bond orders larger than 0.1
B(  0-C ,  1-N ) :   0.9989 B(  0-C ,  7-H ) :   0.9702 B(  0-C ,  8-H ) :   0.9715
B(  0-C ,  9-H ) :   0.9541 B(  1-N ,  2-C ) :   1.3115 B(  1-N ,  3-O ) :   0.1162
B(  1-N , 10-H ) :   0.9005 B(  2-C ,  3-O ) :   2.0472 B(  2-C ,  4-C ) :   0.9016
B(  4-C ,  5-C ) :   1.0559 B(  4-C , 11-H ) :   0.8735 B(  4-C , 12-H ) :   0.8710
B(  5-C ,  6-N ) :   2.9989

FINAL SINGLE POINT ENERGY      -340.107303002014

DIPOLE MOMENT
-------------
                                X             Y             Z
Electronic contribution:      4.04928       1.33242       2.37509
Nuclear contribution   :     -4.43342      -1.39862      -2.68644
                        -----------------------------------------
Total Dipole Moment    :     -0.38413      -0.06620      -0.31135
                        -----------------------------------------
Magnitude (a.u.)       :      0.49888
Magnitude (Debye)      :      1.26805

                             ****ORCA TERMINATED NORMALLY****
TOTAL RUN TIME: 0 days 0 hours 0 minutes 6 seconds 199 msec
