                         Program Version 3.0.3 - RELEASE   -
|  1> ! RI PBE def2-SVP def2-SVP/J NBO PAL2
|  2> % maxcore 2000
|  3> % output
|  4>     # printlevel mini
|  5>     print[ P_Basis ] 0
|  6>     print[ P_SCFInfo ] 1
|  7>     print[ P_SCFIterInfo ] 1
|  8>     print[ P_OrbEn ] 0
|  9>     print[ P_Cartesian ] 0
| 10> end
| 11> *xyz 0 1
| 12>  C        0.9969820000     0.1092540000     0.0101270000
| 13>  N        2.4307980000     0.1166750000    -0.2267100000
| 14>  C        2.9934620000     1.1735720000    -0.9090040000
| 15>  O        2.3756520000     2.1151000000    -1.3327630000
| 16>  C        3.1634610000    -0.9650540000     0.2593100000
| 17>  C        4.6520670000    -0.9928390000     0.0329160000
| 18>  O        2.5918440000    -1.8510120000     0.8468430000
| 19>  H        0.5865990000     1.0145220000    -0.4292760000
| 20>  H        0.7955170000     0.0803460000     1.0807390000
| 21>  H        0.5477930000    -0.7728200000    -0.4457360000
| 22>  H        4.0815080000     1.0826110000    -1.0324680000
| 23>  H        5.1481840000    -0.1377220000     0.4968220000
| 24>  H        4.9000040000    -0.9914530000    -1.0306160000
| 25>  H        5.0253300000    -1.9089800000     0.4843150000
| 26> *
| 27>
| 28>                          ****END OF INPUT****
 Total Charge           Charge          ....    0
 Multiplicity           Mult            ....    1
 Number of Electrons    NEL             ....   54
 Basis Dimension        Dim             ....  133

MULLIKEN ATOMIC CHARGES
-----------------------
   0 C :    0.096980
   1 N :   -0.222255
   2 C :    0.154645
   3 O :   -0.191359
   4 C :    0.026019
   5 C :    0.005316
   6 O :   -0.176099
   7 H :    0.047674
   8 H :    0.047114
   9 H :    0.048114
  10 H :    0.003555
  11 H :    0.058524
  12 H :    0.055964
  13 H :    0.045807
Sum of atomic charges:   -0.0000000

LOEWDIN ATOMIC CHARGES
----------------------
   0 C :    0.024165
   1 N :   -0.016339
   2 C :    0.067885
   3 O :   -0.138393
   4 C :    0.051297
   5 C :   -0.088723
   6 O :   -0.140638
   7 H :    0.031514
   8 H :    0.034737
   9 H :    0.035025
  10 H :   -0.000906
  11 H :    0.046359
  12 H :    0.045636
  13 H :    0.048381

  Mayer bond orders larger than 0.1
B(  0-C ,  1-N ) :   0.9568 B(  0-C ,  7-H ) :   0.9499 B(  0-C ,  8-H ) :   0.9691
B(  0-C ,  9-H ) :   0.9689 B(  1-N ,  2-C ) :   1.0934 B(  1-N ,  4-C ) :   1.0464
B(  2-C ,  3-O ) :   2.0662 B(  2-C , 10-H ) :   0.9222 B(  4-C ,  5-C ) :   1.0497
B(  4-C ,  6-O ) :   2.1127 B(  5-C , 11-H ) :   0.9366 B(  5-C , 12-H ) :   0.9375
B(  5-C , 13-H ) :   0.9371

FINAL SINGLE POINT ENERGY      -361.170807695505

DIPOLE MOMENT
-------------
                                X             Y             Z
Electronic contribution:     -1.19659       1.11873      -0.43438
Nuclear contribution   :      1.80723      -1.27358       0.41805
                        -----------------------------------------
Total Dipole Moment    :      0.61064      -0.15485      -0.01633
                        -----------------------------------------
Magnitude (a.u.)       :      0.63018
Magnitude (Debye)      :      1.60180

                             ****ORCA TERMINATED NORMALLY****
TOTAL RUN TIME: 0 days 0 hours 0 minutes 6 seconds 849 msec
