                         Program Version 3.0.3 - RELEASE   -
|  1> ! RI PBE def2-SVP def2-SVP/J NBO PAL2
|  2> % maxcore 2000
|  3> % output
|  4>     # printlevel mini
|  5>     print[ P_Basis ] 0
|  6>     print[ P_SCFInfo ] 1
|  7>     print[ P_SCFIterInfo ] 1
|  8>     print[ P_OrbEn ] 0
|  9>     print[ P_Cartesian ] 0
| 10> end
| 11> *xyz 0 1
| 12>  C        1.5203850000     1.3269820000    -0.0240950000
| 13>  N        2.9157610000     1.0067510000     0.1467830000
| 14>  C        3.3346070000    -0.2744010000     0.2646860000
| 15>  O        2.5566760000    -1.2101390000     0.2318650000
| 16>  C        4.8280100000    -0.4480030000     0.4379040000
| 17>  C        5.2237120000    -1.8995190000     0.5623680000
| 18>  O        6.6301400000    -1.9363730000     0.7182870000
| 19>  H        1.4106140000     2.4084350000    -0.0967700000
| 20>  H        0.9292640000     0.9651960000     0.8202220000
| 21>  H        1.1211520000     0.8670060000    -0.9308590000
| 22>  H        3.5923700000     1.7475420000     0.1793120000
| 23>  H        5.1608360000     0.0973410000     1.3273680000
| 24>  H        5.3513780000    -0.0000070000    -0.4134050000
| 25>  H        4.9038030000    -2.4471770000    -0.3312210000
| 26>  H        4.7120180000    -2.3492550000     1.4206410000
| 27>  H        6.9004840000    -2.8526810000     0.8041130000
| 28> *
| 29>
| 30>                          ****END OF INPUT****
 Total Charge           Charge          ....    0
 Multiplicity           Mult            ....    1
 Number of Electrons    NEL             ....   56
 Basis Dimension        Dim             ....  143

MULLIKEN ATOMIC CHARGES
-----------------------
   0 C :    0.084146
   1 N :   -0.139267
   2 C :    0.007545
   3 O :   -0.231179
   4 C :   -0.040154
   5 C :    0.152436
   6 O :   -0.278791
   7 H :    0.020462
   8 H :    0.042265
   9 H :    0.038221
  10 H :    0.109407
  11 H :    0.032906
  12 H :    0.032791
  13 H :    0.007874
  14 H :    0.007684
  15 H :    0.153654
Sum of atomic charges:   -0.0000000

LOEWDIN ATOMIC CHARGES
----------------------
   0 C :    0.010931
   1 N :   -0.007310
   2 C :    0.027766
   3 O :   -0.197247
   4 C :   -0.083914
   5 C :    0.063137
   6 O :   -0.132330
   7 H :    0.026440
   8 H :    0.029295
   9 H :    0.028630
  10 H :    0.071839
  11 H :    0.037449
  12 H :    0.037391
  13 H :    0.008912
  14 H :    0.008604
  15 H :    0.070406

  Mayer bond orders larger than 0.1
B(  0-C ,  1-N ) :   1.0099 B(  0-C ,  7-H ) :   0.9696 B(  0-C ,  8-H ) :   0.9674
B(  0-C ,  9-H ) :   0.9664 B(  1-N ,  2-C ) :   1.2530 B(  1-N , 10-H ) :   0.9318
B(  2-C ,  3-O ) :   2.0456 B(  2-C ,  4-C ) :   0.9436 B(  4-C ,  5-C ) :   1.0990
B(  4-C , 11-H ) :   0.9144 B(  4-C , 12-H ) :   0.9141 B(  5-C ,  6-O ) :   1.1004
B(  5-C , 13-H ) :   0.9358 B(  5-C , 14-H ) :   0.9376 B(  6-O , 15-H ) :   0.9790

FINAL SINGLE POINT ENERGY      -362.346133589187

DIPOLE MOMENT
-------------
                                X             Y             Z
Electronic contribution:      1.09956      -2.06173       0.23562
Nuclear contribution   :     -0.86179       2.88012      -0.25226
                        -----------------------------------------
Total Dipole Moment    :      0.23778       0.81839      -0.01664
                        -----------------------------------------
Magnitude (a.u.)       :      0.85239
Magnitude (Debye)      :      2.16661

                             ****ORCA TERMINATED NORMALLY****
TOTAL RUN TIME: 0 days 0 hours 0 minutes 6 seconds 885 msec
