                         Program Version 3.0.3 - RELEASE   -
|  1> ! RI PBE def2-SVP def2-SVP/J NBO PAL2
|  2> % maxcore 2000
|  3> % output
|  4>     # printlevel mini
|  5>     print[ P_Basis ] 0
|  6>     print[ P_SCFInfo ] 1
|  7>     print[ P_SCFIterInfo ] 1
|  8>     print[ P_OrbEn ] 0
|  9>     print[ P_Cartesian ] 0
| 10> end
| 11> *xyz 0 1
| 12>  C        2.2089270000     1.3240870000    -0.2873420000
| 13>  N        3.2218200000     0.5339420000     0.3587820000
| 14>  C        2.9598260000    -0.6499310000     0.9397530000
| 15>  O        1.8658970000    -1.1833860000     0.9707780000
| 16>  C        4.1590550000    -1.3344200000     1.5870810000
| 17>  C        4.4160300000    -2.6708510000     0.9193130000
| 18>  O        5.2866930000    -0.4761290000     1.5273750000
| 19>  H        2.4385280000     1.4749260000    -1.3456550000
| 20>  H        2.1047500000     2.3015030000     0.1912990000
| 21>  H        1.2648010000     0.7875230000    -0.2042680000
| 22>  H        4.1716140000     0.8626730000     0.4180330000
| 23>  H        3.8689210000    -1.4991580000     2.6332520000
| 24>  H        4.7192710000    -2.5258930000    -0.1204520000
| 25>  H        5.2058410000    -3.2179180000     1.4425840000
| 26>  H        3.5078600000    -3.2734360000     0.9397590000
| 27>  H        6.0738760000    -0.9908310000     1.7178980000
| 28> *
| 29>
| 30>                          ****END OF INPUT****
 Total Charge           Charge          ....    0
 Multiplicity           Mult            ....    1
 Number of Electrons    NEL             ....   56
 Basis Dimension        Dim             ....  143

MULLIKEN ATOMIC CHARGES
-----------------------
   0 C :    0.071190
   1 N :   -0.130511
   2 C :   -0.000935
   3 O :   -0.233069
   4 C :    0.083277
   5 C :   -0.022142
   6 O :   -0.270648
   7 H :    0.032044
   8 H :    0.030406
   9 H :    0.048082
  10 H :    0.114598
  11 H :    0.022137
  12 H :    0.022073
  13 H :    0.021940
  14 H :    0.049849
  15 H :    0.161708
Sum of atomic charges:   -0.0000000

LOEWDIN ATOMIC CHARGES
----------------------
   0 C :    0.009826
   1 N :    0.009269
   2 C :    0.012403
   3 O :   -0.206607
   4 C :    0.022733
   5 C :   -0.072333
   6 O :   -0.115474
   7 H :    0.023920
   8 H :    0.024106
   9 H :    0.034501
  10 H :    0.065800
  11 H :    0.024710
  12 H :    0.028360
  13 H :    0.023196
  14 H :    0.042693
  15 H :    0.072898

  Mayer bond orders larger than 0.1
B(  0-C ,  1-N ) :   1.0113 B(  0-C ,  7-H ) :   0.9707 B(  0-C ,  8-H ) :   0.9695
B(  0-C ,  9-H ) :   0.9523 B(  1-N ,  2-C ) :   1.2839 B(  1-N ,  3-O ) :   0.1080
B(  1-N , 10-H ) :   0.9009 B(  2-C ,  3-O ) :   2.0399 B(  2-C ,  4-C ) :   0.9095
B(  4-C ,  5-C ) :   1.0997 B(  4-C ,  6-O ) :   1.0659 B(  4-C , 11-H ) :   0.8976
B(  5-C , 12-H ) :   0.9506 B(  5-C , 13-H ) :   0.9581 B(  5-C , 14-H ) :   0.9430
B(  6-O , 15-H ) :   0.9706

FINAL SINGLE POINT ENERGY      -362.356280899716

DIPOLE MOMENT
-------------
                                X             Y             Z
Electronic contribution:     -0.74081       0.68087       1.80922
Nuclear contribution   :      1.96032      -0.36461      -1.92831
                        -----------------------------------------
Total Dipole Moment    :      1.21950       0.31627      -0.11909
                        -----------------------------------------
Magnitude (a.u.)       :      1.26546
Magnitude (Debye)      :      3.21655

                             ****ORCA TERMINATED NORMALLY****
TOTAL RUN TIME: 0 days 0 hours 0 minutes 7 seconds 294 msec
