                         Program Version 3.0.3 - RELEASE   -
|  1> ! RI PBE def2-SVP def2-SVP/J NBO PAL2
|  2> % maxcore 2000
|  3> % output
|  4>     # printlevel mini
|  5>     print[ P_Basis ] 0
|  6>     print[ P_SCFInfo ] 1
|  7>     print[ P_SCFIterInfo ] 1
|  8>     print[ P_OrbEn ] 0
|  9>     print[ P_Cartesian ] 0
| 10> end
| 11> *xyz 0 1
| 12>  C        0.7469230000    -0.1327540000    -0.1153430000
| 13>  N        2.1775420000    -0.1929580000    -0.2402920000
| 14>  C        3.0178860000     0.3490210000     0.6512830000
| 15>  O        2.7096210000     0.9501730000     1.6624490000
| 16>  C        4.4960530000     0.1335530000     0.2677550000
| 17>  C        5.4959130000     0.7072500000     1.2120050000
| 18>  O        4.7755630000    -0.4672180000    -0.7406240000
| 19>  H        0.3145120000    -1.1346550000    -0.0528450000
| 20>  H        0.2990410000     0.3898120000    -0.9644730000
| 21>  H        0.5126090000     0.4114580000     0.7986580000
| 22>  H        2.6155350000    -0.6565420000    -1.0223710000
| 23>  H        5.3411210000     0.2873680000     2.2089900000
| 24>  H        5.3277910000     1.7821460000     1.3148330000
| 25>  H        6.5038810000     0.5039460000     0.8570740000
| 26> *
| 27>
| 28>                          ****END OF INPUT****
 Total Charge           Charge          ....    0
 Multiplicity           Mult            ....    1
 Number of Electrons    NEL             ....   54
 Basis Dimension        Dim             ....  133

MULLIKEN ATOMIC CHARGES
-----------------------
   0 C :    0.072453
   1 N :   -0.119287
   2 C :    0.007630
   3 O :   -0.197215
   4 C :   -0.048744
   5 C :    0.037125
   6 O :   -0.154936
   7 H :    0.038819
   8 H :    0.040296
   9 H :    0.049993
  10 H :    0.117315
  11 H :    0.058179
  12 H :    0.063250
  13 H :    0.035122
Sum of atomic charges:   -0.0000000

LOEWDIN ATOMIC CHARGES
----------------------
   0 C :    0.013553
   1 N :    0.025776
   2 C :   -0.022019
   3 O :   -0.186012
   4 C :    0.039500
   5 C :   -0.080999
   6 O :   -0.109673
   7 H :    0.028228
   8 H :    0.028390
   9 H :    0.036197
  10 H :    0.071011
  11 H :    0.058571
  12 H :    0.059273
  13 H :    0.038205

  Mayer bond orders larger than 0.1
B(  0-C ,  1-N ) :   1.0047 B(  0-C ,  7-H ) :   0.9691 B(  0-C ,  8-H ) :   0.9699
B(  0-C ,  9-H ) :   0.9530 B(  1-N ,  2-C ) :   1.3022 B(  1-N ,  3-O ) :   0.1298
B(  1-N , 10-H ) :   0.8958 B(  2-C ,  3-O ) :   2.0672 B(  2-C ,  4-C ) :   0.8035
B(  4-C ,  5-C ) :   1.0599 B(  4-C ,  6-O ) :   2.1531 B(  5-C , 11-H ) :   0.9291
B(  5-C , 12-H ) :   0.9293 B(  5-C , 13-H ) :   0.9449

FINAL SINGLE POINT ENERGY      -361.166474923015

DIPOLE MOMENT
-------------
                                X             Y             Z
Electronic contribution:      1.91715      -0.46411      -0.81384
Nuclear contribution   :     -2.23444       0.23030       0.42709
                        -----------------------------------------
Total Dipole Moment    :     -0.31729      -0.23381      -0.38674
                        -----------------------------------------
Magnitude (a.u.)       :      0.55218
Magnitude (Debye)      :      1.40354

                             ****ORCA TERMINATED NORMALLY****
TOTAL RUN TIME: 0 days 0 hours 0 minutes 7 seconds 99 msec
