                         Program Version 3.0.3 - RELEASE   -
|  1> ! RI PBE def2-SVP def2-SVP/J NBO PAL2
|  2> % maxcore 2000
|  3> % output
|  4>     # printlevel mini
|  5>     print[ P_Basis ] 0
|  6>     print[ P_SCFInfo ] 1
|  7>     print[ P_SCFIterInfo ] 1
|  8>     print[ P_OrbEn ] 0
|  9>     print[ P_Cartesian ] 0
| 10> end
| 11> *xyz 0 1
| 12>  C        2.9337670000    -1.6983330000     0.0777970000
| 13>  N        3.9153080000    -0.6432450000     0.0887240000
| 14>  C        3.6033950000     0.6381180000     0.3862920000
| 15>  O        2.4829430000     1.0155990000     0.6666220000
| 16>  C        4.7620130000     1.6154190000     0.3296140000
| 17>  C        4.4709390000     2.7218680000    -0.6546220000
| 18>  O        5.2750420000     3.1339750000    -1.4426370000
| 19>  H        3.2016990000    -2.4923560000     0.7789600000
| 20>  H        2.8259500000    -2.1290910000    -0.9209300000
| 21>  H        1.9816770000    -1.2647700000     0.3790590000
| 22>  H        4.8668290000    -0.8595160000    -0.1495670000
| 23>  H        5.7265820000     1.1656990000     0.0904690000
| 24>  H        4.8215520000     2.0778690000     1.3215570000
| 25>  H        3.4452950000     3.1343650000    -0.5932360000
| 26> *
| 27>
| 28>                          ****END OF INPUT****
 Total Charge           Charge          ....    0
 Multiplicity           Mult            ....    1
 Number of Electrons    NEL             ....   54
 Basis Dimension        Dim             ....  133

MULLIKEN ATOMIC CHARGES
-----------------------
   0 C :    0.069554
   1 N :   -0.145543
   2 C :   -0.004463
   3 O :   -0.221018
   4 C :    0.047411
   5 C :    0.077529
   6 O :   -0.158996
   7 H :    0.037467
   8 H :    0.037800
   9 H :    0.053095
  10 H :    0.114770
  11 H :    0.006304
  12 H :    0.068972
  13 H :    0.017120
Sum of atomic charges:    0.0000000

LOEWDIN ATOMIC CHARGES
----------------------
   0 C :    0.011907
   1 N :    0.003142
   2 C :    0.023258
   3 O :   -0.195632
   4 C :   -0.099182
   5 C :    0.100624
   6 O :   -0.103063
   7 H :    0.026339
   8 H :    0.026427
   9 H :    0.037809
  10 H :    0.074147
  11 H :    0.028501
  12 H :    0.067233
  13 H :   -0.001509

  Mayer bond orders larger than 0.1
B(  0-C ,  1-N ) :   1.0022 B(  0-C ,  7-H ) :   0.9720 B(  0-C ,  8-H ) :   0.9706
B(  0-C ,  9-H ) :   0.9520 B(  1-N ,  2-C ) :   1.2401 B(  1-N ,  3-O ) :   0.1037
B(  1-N , 10-H ) :   0.9255 B(  2-C ,  3-O ) :   2.0283 B(  2-C ,  4-C ) :   0.9417
B(  4-C ,  5-C ) :   0.9659 B(  4-C , 11-H ) :   0.9161 B(  4-C , 12-H ) :   0.8952
B(  5-C ,  6-O ) :   2.1803 B(  5-C , 13-H ) :   0.9241

FINAL SINGLE POINT ENERGY      -361.151813379333

DIPOLE MOMENT
-------------
                                X             Y             Z
Electronic contribution:      1.00518       5.28012      -1.09194
Nuclear contribution   :     -0.47954      -6.58030       1.40014
                        -----------------------------------------
Total Dipole Moment    :      0.52564      -1.30018       0.30820
                        -----------------------------------------
Magnitude (a.u.)       :      1.43588
Magnitude (Debye)      :      3.64973

                             ****ORCA TERMINATED NORMALLY****
TOTAL RUN TIME: 0 days 0 hours 0 minutes 6 seconds 669 msec
