                         Program Version 3.0.3 - RELEASE   -
|  1> ! RI PBE def2-SVP def2-SVP/J NBO PAL2
|  2> % maxcore 2000
|  3> % output
|  4>     # printlevel mini
|  5>     print[ P_Basis ] 0
|  6>     print[ P_SCFInfo ] 1
|  7>     print[ P_SCFIterInfo ] 1
|  8>     print[ P_OrbEn ] 0
|  9>     print[ P_Cartesian ] 0
| 10> end
| 11> *xyz 0 1
| 12>  C        0.7753150000     0.3358280000    -1.3142030000
| 13>  N        1.7276190000    -0.3502260000    -2.1453880000
| 14>  C        2.8743920000    -0.8515060000    -1.6101450000
| 15>  O        3.7254310000    -1.4871480000    -2.4594080000
| 16>  C        3.4166860000    -1.6109800000    -3.8275570000
| 17>  N        3.1335230000    -0.7296060000    -0.3773880000
| 18>  C        4.3667850000    -1.2850270000     0.1207980000
| 19>  H       -0.0637000000     0.6543640000    -1.9334930000
| 20>  H        1.2254240000     1.2118110000    -0.8401960000
| 21>  H        0.4072450000    -0.3152420000    -0.5171710000
| 22>  H        1.5376850000    -0.4549160000    -3.1209720000
| 23>  H        4.2474960000    -2.1515110000    -4.2786030000
| 24>  H        3.3324340000    -0.6343270000    -4.3173470000
| 25>  H        2.4995680000    -2.1887090000    -3.9887110000
| 26>  H        4.4326570000    -1.0934880000     1.1930460000
| 27>  H        5.2513440000    -0.8421950000    -0.3542680000
| 28>  H        4.4327950000    -2.3698320000    -0.0310940000
| 29> *
| 30>
| 31>                          ****END OF INPUT****
 Total Charge           Charge          ....    0
 Multiplicity           Mult            ....    1
 Number of Electrons    NEL             ....   56
 Basis Dimension        Dim             ....  148

MULLIKEN ATOMIC CHARGES
-----------------------
   0 C :    0.116285
   1 N :   -0.173433
   2 C :    0.095956
   3 O :   -0.281392
   4 C :    0.116322
   5 N :   -0.257573
   6 C :    0.097707
   7 H :    0.009060
   8 H :    0.028385
   9 H :    0.031009
  10 H :    0.097761
  11 H :    0.048750
  12 H :    0.029065
  13 H :    0.028599
  14 H :    0.012998
  15 H :   -0.003584
  16 H :    0.004083
Sum of atomic charges:   -0.0000000

LOEWDIN ATOMIC CHARGES
----------------------
   0 C :    0.017455
   1 N :   -0.025976
   2 C :    0.030253
   3 O :   -0.087357
   4 C :    0.051888
   5 N :   -0.202844
   6 C :   -0.013695
   7 H :    0.021587
   8 H :    0.024511
   9 H :    0.024902
  10 H :    0.063206
  11 H :    0.033376
  12 H :    0.013010
  13 H :    0.012679
  14 H :    0.015973
  15 H :    0.009993
  16 H :    0.011040

  Mayer bond orders larger than 0.1
B(  0-C ,  1-N ) :   1.0311 B(  0-C ,  7-H ) :   0.9645 B(  0-C ,  8-H ) :   0.9629
B(  0-C ,  9-H ) :   0.9633 B(  1-N ,  2-C ) :   1.1786 B(  1-N , 10-H ) :   0.9276
B(  2-C ,  3-O ) :   1.0964 B(  2-C ,  5-N ) :   1.8254 B(  3-O ,  4-C ) :   0.9838
B(  4-C , 11-H ) :   0.9711 B(  4-C , 12-H ) :   0.9582 B(  4-C , 13-H ) :   0.9586
B(  5-N ,  6-C ) :   1.0531 B(  6-C , 14-H ) :   0.9759 B(  6-C , 15-H ) :   0.9533
B(  6-C , 16-H ) :   0.9558

FINAL SINGLE POINT ENERGY      -342.469525154818

DIPOLE MOMENT
-------------
                                X             Y             Z
Electronic contribution:      0.76444      -0.45534      -0.21056
Nuclear contribution   :     -1.24809       0.41282      -1.21085
                        -----------------------------------------
Total Dipole Moment    :     -0.48365      -0.04252      -1.42142
                        -----------------------------------------
Magnitude (a.u.)       :      1.50205
Magnitude (Debye)      :      3.81791

                             ****ORCA TERMINATED NORMALLY****
TOTAL RUN TIME: 0 days 0 hours 0 minutes 7 seconds 362 msec
