                         Program Version 3.0.3 - RELEASE   -
|  1> ! RI PBE def2-SVP def2-SVP/J NBO PAL2
|  2> % maxcore 2000
|  3> % output
|  4>     # printlevel mini
|  5>     print[ P_Basis ] 0
|  6>     print[ P_SCFInfo ] 1
|  7>     print[ P_SCFIterInfo ] 1
|  8>     print[ P_OrbEn ] 0
|  9>     print[ P_Cartesian ] 0
| 10> end
| 11> *xyz 0 1
| 12>  C        0.4817960000    -0.2463720000     0.7821330000
| 13>  N        1.8619170000    -0.2914880000     0.3725920000
| 14>  C        2.4012210000     0.6798220000    -0.3814660000
| 15>  O        1.7920760000     1.6564370000    -0.7753200000
| 16>  C        3.8640680000     0.4967030000    -0.7343290000
| 17>  O        4.3871310000    -0.6846410000    -0.1891600000
| 18>  C        5.7408010000    -0.8760520000    -0.5050590000
| 19>  H        0.2603770000    -1.1279110000     1.3823300000
| 20>  H       -0.1832870000    -0.2288660000    -0.0844380000
| 21>  H        0.2784670000     0.6486390000     1.3747410000
| 22>  H        2.4593440000    -1.0543790000     0.6417900000
| 23>  H        4.4038510000     1.3801830000    -0.3660110000
| 24>  H        3.9402200000     0.4989680000    -1.8305870000
| 25>  H        6.3610900000    -0.0571400000    -0.1176160000
| 26>  H        5.8918790000    -0.9446590000    -1.5903970000
| 27>  H        6.0576590000    -1.8107550000    -0.0427050000
| 28> *
| 29>
| 30>                          ****END OF INPUT****
 Total Charge           Charge          ....    0
 Multiplicity           Mult            ....    1
 Number of Electrons    NEL             ....   56
 Basis Dimension        Dim             ....  143

MULLIKEN ATOMIC CHARGES
-----------------------
   0 C :    0.086357
   1 N :   -0.133643
   2 C :   -0.033300
   3 O :   -0.238776
   4 C :    0.208041
   5 O :   -0.367657
   6 C :    0.155528
   7 H :    0.020254
   8 H :    0.041100
   9 H :    0.040215
  10 H :    0.117725
  11 H :    0.021748
  12 H :    0.025313
  13 H :    0.012015
  14 H :    0.013363
  15 H :    0.031716
Sum of atomic charges:   -0.0000000

LOEWDIN ATOMIC CHARGES
----------------------
   0 C :    0.012463
   1 N :    0.004603
   2 C :    0.007029
   3 O :   -0.204275
   4 C :    0.035652
   5 O :   -0.155237
   6 C :    0.055260
   7 H :    0.026757
   8 H :    0.029725
   9 H :    0.029233
  10 H :    0.067816
  11 H :    0.023889
  12 H :    0.024519
  13 H :    0.009194
  14 H :    0.009445
  15 H :    0.023927

  Mayer bond orders larger than 0.1
B(  0-C ,  1-N ) :   1.0082 B(  0-C ,  7-H ) :   0.9707 B(  0-C ,  8-H ) :   0.9666
B(  0-C ,  9-H ) :   0.9670 B(  1-N ,  2-C ) :   1.2786 B(  1-N , 10-H ) :   0.9082
B(  2-C ,  3-O ) :   2.0476 B(  2-C ,  4-C ) :   0.9544 B(  4-C ,  5-O ) :   1.0091
B(  4-C , 11-H ) :   0.9128 B(  4-C , 12-H ) :   0.9136 B(  5-O ,  6-C ) :   1.0019
B(  6-C , 13-H ) :   0.9580 B(  6-C , 14-H ) :   0.9591 B(  6-C , 15-H ) :   0.9763

FINAL SINGLE POINT ENERGY      -362.337973239986

DIPOLE MOMENT
-------------
                                X             Y             Z
Electronic contribution:     -2.00156       2.23041      -0.70473
Nuclear contribution   :      2.70177      -3.28913       1.11438
                        -----------------------------------------
Total Dipole Moment    :      0.70021      -1.05872       0.40965
                        -----------------------------------------
Magnitude (a.u.)       :      1.33378
Magnitude (Debye)      :      3.39021

                             ****ORCA TERMINATED NORMALLY****
TOTAL RUN TIME: 0 days 0 hours 0 minutes 6 seconds 649 msec
