                         Program Version 3.0.3 - RELEASE   -
|  1> ! RI PBE def2-SVP def2-SVP/J NBO PAL2
|  2> % maxcore 2000
|  3> % output
|  4>     # printlevel mini
|  5>     print[ P_Basis ] 0
|  6>     print[ P_SCFInfo ] 1
|  7>     print[ P_SCFIterInfo ] 1
|  8>     print[ P_OrbEn ] 0
|  9>     print[ P_Cartesian ] 0
| 10> end
| 11> *xyz 0 1
| 12>  C        0.2021880000    -1.0118560000     0.5269150000
| 13>  N        1.5516000000    -1.4291260000     0.8056930000
| 14>  C        1.8241920000    -2.1969430000     1.8924930000
| 15>  O        0.9981370000    -2.8001190000     2.5400300000
| 16>  N        2.5419140000    -0.5322070000     0.3376200000
| 17>  C        3.7685570000    -1.1905990000    -0.1073890000
| 18>  C        2.8036210000    -0.6833960000    -1.0957490000
| 19>  H       -0.4659820000    -1.6968800000     1.0446600000
| 20>  H        0.0052270000    -1.0456490000    -0.5466620000
| 21>  H        0.0339480000     0.0079340000     0.8866710000
| 22>  H        2.9045460000    -2.2350000000     2.1132330000
| 23>  H        3.8273890000    -2.2673560000     0.0037080000
| 24>  H        4.6762400000    -0.6457670000     0.1204580000
| 25>  H        2.2178550000    -1.4261430000    -1.6261090000
| 26>  H        2.9769760000     0.2482080000    -1.6194630000
| 27> *
| 28>
| 29>                          ****END OF INPUT****
 Total Charge           Charge          ....    0
 Multiplicity           Mult            ....    1
 Number of Electrons    NEL             ....   54
 Basis Dimension        Dim             ....  138

MULLIKEN ATOMIC CHARGES
-----------------------
   0 C :    0.106558
   1 N :   -0.192084
   2 C :    0.160277
   3 O :   -0.235307
   4 N :   -0.205207
   5 C :    0.024744
   6 C :    0.036072
   7 H :    0.051929
   8 H :    0.026546
   9 H :    0.035661
  10 H :   -0.010145
  11 H :    0.050177
  12 H :    0.050369
  13 H :    0.048836
  14 H :    0.051574
Sum of atomic charges:   -0.0000000

LOEWDIN ATOMIC CHARGES
----------------------
   0 C :    0.013511
   1 N :    0.002466
   2 C :    0.037844
   3 O :   -0.182607
   4 N :   -0.057747
   5 C :    0.005957
   6 C :    0.002415
   7 H :    0.037340
   8 H :    0.022286
   9 H :    0.026371
  10 H :   -0.011347
  11 H :    0.023268
  12 H :    0.029235
  13 H :    0.023475
  14 H :    0.027534

  Mayer bond orders larger than 0.1
B(  0-C ,  1-N ) :   0.9857 B(  0-C ,  7-H ) :   0.9493 B(  0-C ,  8-H ) :   0.9647
B(  0-C ,  9-H ) :   0.9609 B(  1-N ,  2-C ) :   1.1487 B(  1-N ,  3-O ) :   0.1117
B(  1-N ,  4-N ) :   0.9272 B(  2-C ,  3-O ) :   2.0126 B(  2-C , 10-H ) :   0.9248
B(  4-N ,  5-C ) :   0.9449 B(  4-N ,  6-C ) :   0.9270 B(  5-C ,  6-C ) :   1.0878
B(  5-C , 11-H ) :   0.9350 B(  5-C , 12-H ) :   0.9509 B(  6-C , 13-H ) :   0.9369
B(  6-C , 14-H ) :   0.9522

FINAL SINGLE POINT ENERGY      -341.230858383807

DIPOLE MOMENT
-------------
                                X             Y             Z
Electronic contribution:     -0.14173      -1.65574       3.74428
Nuclear contribution   :      0.70403       2.16285      -4.99179
                        -----------------------------------------
Total Dipole Moment    :      0.56231       0.50712      -1.24752
                        -----------------------------------------
Magnitude (a.u.)       :      1.45933
Magnitude (Debye)      :      3.70933

                             ****ORCA TERMINATED NORMALLY****
TOTAL RUN TIME: 0 days 0 hours 0 minutes 6 seconds 560 msec
