                         Program Version 3.0.3 - RELEASE   -
|  1> ! RI PBE def2-SVP def2-SVP/J NBO PAL2
|  2> % maxcore 2000
|  3> % output
|  4>     # printlevel mini
|  5>     print[ P_Basis ] 0
|  6>     print[ P_SCFInfo ] 1
|  7>     print[ P_SCFIterInfo ] 1
|  8>     print[ P_OrbEn ] 0
|  9>     print[ P_Cartesian ] 0
| 10> end
| 11> *xyz 0 1
| 12>  C        1.1029950000    -0.7921270000    -1.3584230000
| 13>  N        2.2121500000    -1.0152130000    -0.4682960000
| 14>  C        2.7742930000    -0.0132640000     0.2281380000
| 15>  O        2.4088260000     1.1422620000     0.1709460000
| 16>  N        3.8527130000    -0.5040720000     1.0352880000
| 17>  C        4.9240210000     0.4766740000     1.2370300000
| 18>  C        3.9806790000     0.1915330000     2.3213010000
| 19>  H        0.8134550000    -1.7410330000    -1.8082530000
| 20>  H        1.3715320000    -0.0907490000    -2.1520190000
| 21>  H        0.2463260000    -0.3781620000    -0.8213180000
| 22>  H        2.6035030000    -1.9313760000    -0.3424940000
| 23>  H        4.8047880000     1.4272570000     0.7287390000
| 24>  H        5.9197400000     0.0492310000     1.2454660000
| 25>  H        3.2379340000     0.9537400000     2.5304790000
| 26>  H        4.2647330000    -0.4505900000     3.1466960000
| 27> *
| 28>
| 29>                          ****END OF INPUT****
 Total Charge           Charge          ....    0
 Multiplicity           Mult            ....    1
 Number of Electrons    NEL             ....   54
 Basis Dimension        Dim             ....  138

MULLIKEN ATOMIC CHARGES
-----------------------
   0 C :    0.095383
   1 N :   -0.126605
   2 C :    0.071365
   3 O :   -0.219636
   4 N :   -0.293848
   5 C :    0.034753
   6 C :    0.034355
   7 H :    0.020531
   8 H :    0.041409
   9 H :    0.038888
  10 H :    0.122345
  11 H :    0.051938
  12 H :    0.039515
  13 H :    0.050557
  14 H :    0.039049
Sum of atomic charges:    0.0000000

LOEWDIN ATOMIC CHARGES
----------------------
   0 C :    0.013610
   1 N :    0.009758
   2 C :    0.021026
   3 O :   -0.199565
   4 N :   -0.138874
   5 C :    0.019634
   6 C :    0.020453
   7 H :    0.028215
   8 H :    0.029945
   9 H :    0.029600
  10 H :    0.075576
  11 H :    0.022761
  12 H :    0.022768
  13 H :    0.022618
  14 H :    0.022475

  Mayer bond orders larger than 0.1
B(  0-C ,  1-N ) :   1.0131 B(  0-C ,  7-H ) :   0.9690 B(  0-C ,  8-H ) :   0.9666
B(  0-C ,  9-H ) :   0.9661 B(  1-N ,  2-C ) :   1.2588 B(  1-N , 10-H ) :   0.9227
B(  2-C ,  3-O ) :   2.0221 B(  2-C ,  4-N ) :   1.0511 B(  4-N ,  5-C ) :   0.9335
B(  4-N ,  6-C ) :   0.9338 B(  5-C ,  6-C ) :   1.0984 B(  5-C , 11-H ) :   0.9335
B(  5-C , 12-H ) :   0.9525 B(  6-C , 13-H ) :   0.9347 B(  6-C , 14-H ) :   0.9523

FINAL SINGLE POINT ENERGY      -341.282500232582

DIPOLE MOMENT
-------------
                                X             Y             Z
Electronic contribution:      0.72274       0.61763       0.65217
Nuclear contribution   :     -0.70819      -1.50558      -0.81174
                        -----------------------------------------
Total Dipole Moment    :      0.01455      -0.88795      -0.15957
                        -----------------------------------------
Magnitude (a.u.)       :      0.90229
Magnitude (Debye)      :      2.29344

                             ****ORCA TERMINATED NORMALLY****
TOTAL RUN TIME: 0 days 0 hours 0 minutes 6 seconds 32 msec
