                         Program Version 3.0.3 - RELEASE   -
|  1> ! RI PBE def2-SVP def2-SVP/J NBO PAL2
|  2> % maxcore 2000
|  3> % output
|  4>     # printlevel mini
|  5>     print[ P_Basis ] 0
|  6>     print[ P_SCFInfo ] 1
|  7>     print[ P_SCFIterInfo ] 1
|  8>     print[ P_OrbEn ] 0
|  9>     print[ P_Cartesian ] 0
| 10> end
| 11> *xyz 0 1
| 12>  C        1.0638050000     1.9825190000     1.2904900000
| 13>  N        2.5037540000     1.9929100000     1.3452420000
| 14>  C        3.2090510000     1.0397670000     0.6714080000
| 15>  O        2.6266720000     0.1815990000     0.0252970000
| 16>  N        4.5810940000     1.0869240000     0.7509630000
| 17>  C        5.3406040000     0.0872340000     0.0459500000
| 18>  C        5.3675130000     2.0448130000     1.4762330000
| 19>  H        0.6876120000     2.8142440000     1.8867930000
| 20>  H        0.6575220000     1.0498630000     1.6882300000
| 21>  H        0.7041140000     2.0914200000     0.2648790000
| 22>  H        2.9564380000     2.7046900000     1.8809620000
| 23>  H        4.6491440000    -0.5790360000    -0.4632100000
| 24>  H        5.9578580000    -0.4943860000     0.7408610000
| 25>  H        6.0048470000     0.5519820000    -0.6922760000
| 26>  H        4.7626560000     2.7840540000     1.9954680000
| 27>  H        6.0371440000     2.5900240000     0.7999170000
| 28>  H        5.9895630000     1.5465690000     2.2298010000
| 29> *
| 30>
| 31>                          ****END OF INPUT****
 Total Charge           Charge          ....    0
 Multiplicity           Mult            ....    1
 Number of Electrons    NEL             ....   56
 Basis Dimension        Dim             ....  148

MULLIKEN ATOMIC CHARGES
-----------------------
   0 C :    0.099521
   1 N :   -0.194694
   2 C :    0.140590
   3 O :   -0.263970
   4 N :   -0.305220
   5 C :    0.092764
   6 C :    0.094781
   7 H :    0.010961
   8 H :    0.034479
   9 H :    0.033172
  10 H :    0.098174
  11 H :    0.055488
  12 H :    0.017208
  13 H :    0.018067
  14 H :    0.011281
  15 H :    0.028230
  16 H :    0.029170
Sum of atomic charges:   -0.0000000

LOEWDIN ATOMIC CHARGES
----------------------
   0 C :    0.014860
   1 N :   -0.034895
   2 C :    0.028777
   3 O :   -0.235138
   4 N :   -0.066543
   5 C :    0.016044
   6 C :    0.016000
   7 H :    0.022444
   8 H :    0.025094
   9 H :    0.024762
  10 H :    0.055974
  11 H :    0.034978
  12 H :    0.016355
  13 H :    0.016233
  14 H :    0.020610
  15 H :    0.022260
  16 H :    0.022184

  Mayer bond orders larger than 0.1
B(  0-C ,  1-N ) :   1.0241 B(  0-C ,  7-H ) :   0.9676 B(  0-C ,  8-H ) :   0.9679
B(  0-C ,  9-H ) :   0.9678 B(  1-N ,  2-C ) :   1.1680 B(  1-N , 10-H ) :   0.9308
B(  2-C ,  3-O ) :   1.9766 B(  2-C ,  4-N ) :   1.0996 B(  4-N ,  5-C ) :   1.0045
B(  4-N ,  6-C ) :   1.0156 B(  5-C , 11-H ) :   0.9464 B(  5-C , 12-H ) :   0.9645
B(  5-C , 13-H ) :   0.9652 B(  6-C , 14-H ) :   0.9626 B(  6-C , 15-H ) :   0.9579
B(  6-C , 16-H ) :   0.9587

FINAL SINGLE POINT ENERGY      -342.511638120625

DIPOLE MOMENT
-------------
                                X             Y             Z
Electronic contribution:     -2.27626      -1.71311      -1.32874
Nuclear contribution   :      2.95975       2.80657       2.14927
                        -----------------------------------------
Total Dipole Moment    :      0.68349       1.09346       0.82053
                        -----------------------------------------
Magnitude (a.u.)       :      1.52843
Magnitude (Debye)      :      3.88495

                             ****ORCA TERMINATED NORMALLY****
TOTAL RUN TIME: 0 days 0 hours 0 minutes 6 seconds 713 msec
