                         Program Version 3.0.3 - RELEASE   -
|  1> ! RI PBE def2-SVP def2-SVP/J NBO PAL2
|  2> % maxcore 2000
|  3> % output
|  4>     # printlevel mini
|  5>     print[ P_Basis ] 0
|  6>     print[ P_SCFInfo ] 1
|  7>     print[ P_SCFIterInfo ] 1
|  8>     print[ P_OrbEn ] 0
|  9>     print[ P_Cartesian ] 0
| 10> end
| 11> *xyz 0 1
| 12>  C        1.0342840000     0.5055770000    -0.8893260000
| 13>  N        2.2960150000    -0.0338430000    -0.4483670000
| 14>  C        3.2000560000     0.7639550000     0.1810130000
| 15>  O        2.9970110000     1.9411100000     0.3983640000
| 16>  N        4.3687720000     0.1239960000     0.5519390000
| 17>  C        5.3942650000     0.7826230000     1.2002370000
| 18>  C        6.5396200000     0.2244480000     1.5819010000
| 19>  H        0.4614300000    -0.2899460000    -1.3649210000
| 20>  H        1.1801730000     1.3145980000    -1.6085160000
| 21>  H        0.4590130000     0.9019920000    -0.0497130000
| 22>  H        2.4964600000    -1.0027130000    -0.6121450000
| 23>  H        4.4879280000    -0.8538810000     0.3481670000
| 24>  H        5.1679050000     1.8280340000     1.3723160000
| 25>  H        6.7639970000    -0.8226380000     1.4084660000
| 26>  H        7.2875610000     0.8196980000     2.0851840000
| 27> *
| 28>
| 29>                          ****END OF INPUT****
 Total Charge           Charge          ....    0
 Multiplicity           Mult            ....    1
 Number of Electrons    NEL             ....   54
 Basis Dimension        Dim             ....  138

MULLIKEN ATOMIC CHARGES
-----------------------
   0 C :    0.087287
   1 N :   -0.184378
   2 C :    0.108925
   3 O :   -0.241853
   4 N :   -0.101110
   5 C :    0.043885
   6 C :   -0.089871
   7 H :    0.021181
   8 H :    0.043458
   9 H :    0.042981
  10 H :    0.105005
  11 H :    0.101708
  12 H :    0.030664
  13 H :    0.003538
  14 H :    0.028582
Sum of atomic charges:   -0.0000000

LOEWDIN ATOMIC CHARGES
----------------------
   0 C :    0.014150
   1 N :   -0.028433
   2 C :    0.030467
   3 O :   -0.214551
   4 N :    0.011865
   5 C :    0.020245
   6 C :   -0.137433
   7 H :    0.026848
   8 H :    0.029067
   9 H :    0.029409
  10 H :    0.065373
  11 H :    0.072482
  12 H :    0.035153
  13 H :    0.015639
  14 H :    0.029720

  Mayer bond orders larger than 0.1
B(  0-C ,  1-N ) :   1.0187 B(  0-C ,  7-H ) :   0.9686 B(  0-C ,  8-H ) :   0.9679
B(  0-C ,  9-H ) :   0.9672 B(  1-N ,  2-C ) :   1.1714 B(  1-N , 10-H ) :   0.9331
B(  2-C ,  3-O ) :   2.0162 B(  2-C ,  4-N ) :   1.0776 B(  4-N ,  5-C ) :   1.1400
B(  4-N , 11-H ) :   0.9199 B(  5-C ,  6-C ) :   1.8871 B(  5-C , 12-H ) :   0.9506
B(  6-C , 13-H ) :   0.9500 B(  6-C , 14-H ) :   0.9446

FINAL SINGLE POINT ENERGY      -341.310488672009

DIPOLE MOMENT
-------------
                                X             Y             Z
Electronic contribution:      0.38484       1.32065       0.52364
Nuclear contribution   :     -0.74716      -2.82442      -1.09422
                        -----------------------------------------
Total Dipole Moment    :     -0.36232      -1.50377      -0.57059
                        -----------------------------------------
Magnitude (a.u.)       :      1.64869
Magnitude (Debye)      :      4.19064

                             ****ORCA TERMINATED NORMALLY****
TOTAL RUN TIME: 0 days 0 hours 0 minutes 6 seconds 795 msec
