                         Program Version 3.0.3 - RELEASE   -
|  1> ! RI PBE def2-SVP def2-SVP/J NBO PAL2
|  2> % maxcore 2000
|  3> % output
|  4>     # printlevel mini
|  5>     print[ P_Basis ] 0
|  6>     print[ P_SCFInfo ] 1
|  7>     print[ P_SCFIterInfo ] 1
|  8>     print[ P_OrbEn ] 0
|  9>     print[ P_Cartesian ] 0
| 10> end
| 11> *xyz 0 1
| 12>  C        0.7816770000     0.7916580000    -2.0630730000
| 13>  N        1.9052530000     1.0895060000    -2.5540720000
| 14>  N        2.9100090000     1.1974580000    -1.5552950000
| 15>  C        4.2144030000     0.9077480000    -2.1169230000
| 16>  C        3.8163090000     2.3159470000    -1.8919410000
| 17>  C        4.3400850000     3.0585040000    -0.7245500000
| 18>  O        4.7197940000     4.1962440000    -0.7714480000
| 19>  H       -0.0536540000     0.6846910000    -2.7488920000
| 20>  H        0.6303400000     0.6412320000    -0.9931340000
| 21>  H        4.2408370000     0.5813800000    -3.1503820000
| 22>  H        4.8998820000     0.4171290000    -1.4352630000
| 23>  H        3.5654610000     2.9028420000    -2.7681220000
| 24>  H        4.3676940000     2.4697710000     0.2171930000
| 25> *
| 26>
| 27>                          ****END OF INPUT****
 Total Charge           Charge          ....    0
 Multiplicity           Mult            ....    1
 Number of Electrons    NEL             ....   52
 Basis Dimension        Dim             ....  128

MULLIKEN ATOMIC CHARGES
-----------------------
   0 C :    0.032257
   1 N :   -0.097345
   2 N :   -0.231486
   3 C :    0.122576
   4 C :   -0.071705
   5 C :    0.197065
   6 O :   -0.153843
   7 H :    0.054354
   8 H :    0.033219
   9 H :    0.043852
  10 H :    0.047880
  11 H :    0.041359
  12 H :   -0.018183
Sum of atomic charges:   -0.0000000

LOEWDIN ATOMIC CHARGES
----------------------
   0 C :    0.011184
   1 N :   -0.032808
   2 N :   -0.060720
   3 C :    0.025621
   4 C :   -0.034415
   5 C :    0.085270
   6 O :   -0.102384
   7 H :    0.025543
   8 H :    0.005777
   9 H :    0.027172
  10 H :    0.028073
  11 H :    0.031001
  12 H :   -0.009315

  Mayer bond orders larger than 0.1
B(  0-C ,  1-N ) :   1.9831 B(  0-C ,  7-H ) :   0.9495 B(  0-C ,  8-H ) :   0.9288
B(  1-N ,  2-N ) :   0.9448 B(  2-N ,  3-C ) :   0.9464 B(  2-N ,  4-C ) :   0.8225
B(  3-C ,  4-C ) :   0.9947 B(  3-C ,  9-H ) :   0.9247 B(  3-C , 10-H ) :   0.9432
B(  4-C ,  5-C ) :   0.9803 B(  4-C , 11-H ) :   0.9335 B(  5-C ,  6-O ) :   2.1745
B(  5-C , 12-H ) :   0.9226

FINAL SINGLE POINT ENERGY      -340.001648297558

DIPOLE MOMENT
-------------
                                X             Y             Z
Electronic contribution:      1.28522       2.80510       0.70906
Nuclear contribution   :     -1.71597      -3.76499      -0.87341
                        -----------------------------------------
Total Dipole Moment    :     -0.43075      -0.95988      -0.16434
                        -----------------------------------------
Magnitude (a.u.)       :      1.06486
Magnitude (Debye)      :      2.70666

                             ****ORCA TERMINATED NORMALLY****
TOTAL RUN TIME: 0 days 0 hours 0 minutes 5 seconds 753 msec
