                         Program Version 3.0.3 - RELEASE   -
|  1> ! RI PBE def2-SVP def2-SVP/J NBO PAL2
|  2> % maxcore 2000
|  3> % output
|  4>     # printlevel mini
|  5>     print[ P_Basis ] 0
|  6>     print[ P_SCFInfo ] 1
|  7>     print[ P_SCFIterInfo ] 1
|  8>     print[ P_OrbEn ] 0
|  9>     print[ P_Cartesian ] 0
| 10> end
| 11> *xyz 0 1
| 12>  C        2.2677420000    -0.8175380000     0.6909830000
| 13>  N        2.6650880000    -0.0027500000    -0.2033310000
| 14>  N        3.0437090000    -0.4955570000    -1.3926420000
| 15>  C        3.5278120000     0.2505520000    -2.5458920000
| 16>  C        3.6603900000    -1.1023600000    -3.2739980000
| 17>  C        3.1385540000    -1.7405140000    -1.9855130000
| 18>  O        2.8923980000    -2.8452300000    -1.5896260000
| 19>  H        1.9721850000    -0.3808990000     1.6386240000
| 20>  H        2.2165110000    -1.8946660000     0.5502920000
| 21>  H        4.4652640000     0.7776110000    -2.3588950000
| 22>  H        2.7870280000     0.9368850000    -2.9603240000
| 23>  H        4.6757730000    -1.4017120000    -3.5315940000
| 24>  H        3.0024360000    -1.2432220000    -4.1308730000
| 25> *
| 26>
| 27>                          ****END OF INPUT****
 Total Charge           Charge          ....    0
 Multiplicity           Mult            ....    1
 Number of Electrons    NEL             ....   52
 Basis Dimension        Dim             ....  128

MULLIKEN ATOMIC CHARGES
-----------------------
   0 C :   -0.025804
   1 N :   -0.063863
   2 N :   -0.226956
   3 C :    0.172514
   4 C :   -0.072424
   5 C :    0.099029
   6 O :   -0.159207
   7 H :    0.045481
   8 H :    0.056764
   9 H :    0.034172
  10 H :    0.036356
  11 H :    0.050741
  12 H :    0.053196
Sum of atomic charges:   -0.0000000

LOEWDIN ATOMIC CHARGES
----------------------
   0 C :   -0.016508
   1 N :   -0.036343
   2 N :    0.009631
   3 C :    0.052124
   4 C :   -0.055183
   5 C :    0.022483
   6 O :   -0.141823
   7 H :    0.021050
   8 H :    0.010202
   9 H :    0.024379
  10 H :    0.024527
  11 H :    0.042495
  12 H :    0.042966

  Mayer bond orders larger than 0.1
B(  0-C ,  1-N ) :   1.8986 B(  0-C ,  7-H ) :   0.9494 B(  0-C ,  8-H ) :   0.9318
B(  1-N ,  2-N ) :   1.0325 B(  2-N ,  3-C ) :   0.9978 B(  2-N ,  5-C ) :   1.0973
B(  3-C ,  4-C ) :   1.1162 B(  3-C ,  9-H ) :   0.9348 B(  3-C , 10-H ) :   0.9353
B(  4-C ,  5-C ) :   0.9718 B(  4-C , 11-H ) :   0.9128 B(  4-C , 12-H ) :   0.9117
B(  5-C ,  6-O ) :   2.1268

FINAL SINGLE POINT ENERGY      -340.059753980125

DIPOLE MOMENT
-------------
                                X             Y             Z
Electronic contribution:     -0.67717      -1.89769       1.37417
Nuclear contribution   :      0.90454       2.52057      -1.85075
                        -----------------------------------------
Total Dipole Moment    :      0.22737       0.62288      -0.47658
                        -----------------------------------------
Magnitude (a.u.)       :      0.81658
Magnitude (Debye)      :      2.07559

                             ****ORCA TERMINATED NORMALLY****
TOTAL RUN TIME: 0 days 0 hours 0 minutes 6 seconds 342 msec
