                         Program Version 3.0.3 - RELEASE   -
|  1> ! RI PBE def2-SVP def2-SVP/J NBO PAL2
|  2> % maxcore 2000
|  3> % output
|  4>     # printlevel mini
|  5>     print[ P_Basis ] 0
|  6>     print[ P_SCFInfo ] 1
|  7>     print[ P_SCFIterInfo ] 1
|  8>     print[ P_OrbEn ] 0
|  9>     print[ P_Cartesian ] 0
| 10> end
| 11> *xyz 0 1
| 12>  C        2.8460630000     0.4739580000    -0.7248120000
| 13>  N        2.5860670000     0.3228760000     0.7006330000
| 14>  N        3.0749240000    -0.8549620000     1.2161420000
| 15>  C        4.1273330000    -1.0823830000     2.1997340000
| 16>  C        3.7452900000    -2.5760890000     2.1380280000
| 17>  C        2.6481510000    -2.1531920000     1.1511900000
| 18>  O        1.7432550000    -2.6791440000     0.5629220000
| 19>  H        2.3862430000     1.4065230000    -1.0570670000
| 20>  H        2.4551150000    -0.3533100000    -1.3275460000
| 21>  H        3.9224560000     0.5529100000    -0.8863140000
| 22>  H        1.5909490000     0.3674600000     0.8890700000
| 23>  H        3.9412830000    -0.5965320000     3.1607880000
| 24>  H        5.1297370000    -0.8324380000     1.8446230000
| 25>  H        3.3618090000    -3.0001730000     3.0651880000
| 26>  H        4.4957160000    -3.2374140000     1.7067310000
| 27> *
| 28>
| 29>                          ****END OF INPUT****
 Total Charge           Charge          ....    0
 Multiplicity           Mult            ....    1
 Number of Electrons    NEL             ....   54
 Basis Dimension        Dim             ....  138

MULLIKEN ATOMIC CHARGES
-----------------------
   0 C :    0.067692
   1 N :   -0.131805
   2 N :   -0.261950
   3 C :    0.184678
   4 C :   -0.092371
   5 C :    0.078841
   6 O :   -0.179809
   7 H :    0.025011
   8 H :    0.035609
   9 H :    0.027341
  10 H :    0.114685
  11 H :    0.019007
  12 H :    0.017297
  13 H :    0.045497
  14 H :    0.050278
Sum of atomic charges:   -0.0000000

LOEWDIN ATOMIC CHARGES
----------------------
   0 C :   -0.006571
   1 N :   -0.042252
   2 N :   -0.009310
   3 C :    0.047384
   4 C :   -0.061662
   5 C :    0.007254
   6 O :   -0.170357
   7 H :    0.027068
   8 H :    0.014052
   9 H :    0.023421
  10 H :    0.059453
  11 H :    0.017314
  12 H :    0.016153
  13 H :    0.038658
  14 H :    0.039397

  Mayer bond orders larger than 0.1
B(  0-C ,  1-N ) :   1.0335 B(  0-C ,  7-H ) :   0.9687 B(  0-C ,  8-H ) :   0.9626
B(  0-C ,  9-H ) :   0.9724 B(  1-N ,  2-N ) :   0.9918 B(  1-N , 10-H ) :   0.9476
B(  2-N ,  3-C ) :   1.0044 B(  2-N ,  5-C ) :   1.1578 B(  2-N ,  6-O ) :   0.1061
B(  3-C ,  4-C ) :   1.1103 B(  3-C , 11-H ) :   0.9337 B(  3-C , 12-H ) :   0.9356
B(  4-C ,  5-C ) :   0.9403 B(  4-C , 13-H ) :   0.9177 B(  4-C , 14-H ) :   0.9174
B(  5-C ,  6-O ) :   2.1555

FINAL SINGLE POINT ENERGY      -341.261998606638

DIPOLE MOMENT
-------------
                                X             Y             Z
Electronic contribution:     -2.82885      -2.99489       0.92155
Nuclear contribution   :      3.44564       3.65547      -0.60493
                        -----------------------------------------
Total Dipole Moment    :      0.61680       0.66058       0.31662
                        -----------------------------------------
Magnitude (a.u.)       :      0.95763
Magnitude (Debye)      :      2.43410

                             ****ORCA TERMINATED NORMALLY****
TOTAL RUN TIME: 0 days 0 hours 0 minutes 7 seconds 30 msec
