                         Program Version 3.0.3 - RELEASE   -
|  1> ! RI PBE def2-SVP def2-SVP/J NBO PAL2
|  2> % maxcore 2000
|  3> % output
|  4>     # printlevel mini
|  5>     print[ P_Basis ] 0
|  6>     print[ P_SCFInfo ] 1
|  7>     print[ P_SCFIterInfo ] 1
|  8>     print[ P_OrbEn ] 0
|  9>     print[ P_Cartesian ] 0
| 10> end
| 11> *xyz 0 1
| 12>  C        2.3308770000    -0.9287500000     0.6940950000
| 13>  N        2.4648730000    -0.0654540000    -0.2303410000
| 14>  N        2.5423000000    -0.4776030000    -1.5011410000
| 15>  C        3.2848440000     0.3292780000    -2.4720200000
| 16>  C        3.7450430000    -0.9861600000    -3.0913600000
| 17>  O        4.3413150000    -1.2897840000    -4.0736170000
| 18>  C        3.1234960000    -1.7598470000    -1.9318160000
| 19>  H        2.2381120000    -0.5628580000     1.7093000000
| 20>  H        2.2818760000    -2.0049300000     0.5155840000
| 21>  H        4.1122490000     0.9011990000    -2.0341200000
| 22>  H        2.6760870000     0.9824010000    -3.1017460000
| 23>  H        3.8818410000    -2.1457320000    -1.2337090000
| 24>  H        2.4170880000    -2.5549610000    -2.1816100000
| 25> *
| 26>
| 27>                          ****END OF INPUT****
 Total Charge           Charge          ....    0
 Multiplicity           Mult            ....    1
 Number of Electrons    NEL             ....   52
 Basis Dimension        Dim             ....  128

MULLIKEN ATOMIC CHARGES
-----------------------
   0 C :   -0.065198
   1 N :   -0.060978
   2 N :   -0.286646
   3 C :    0.185377
   4 C :   -0.083547
   5 O :   -0.103183
   6 C :    0.138205
   7 H :    0.045911
   8 H :    0.022081
   9 H :    0.046023
  10 H :    0.057953
  11 H :    0.044003
  12 H :    0.059999
Sum of atomic charges:    0.0000000

LOEWDIN ATOMIC CHARGES
----------------------
   0 C :   -0.072258
   1 N :   -0.030416
   2 N :   -0.034517
   3 C :    0.009674
   4 C :    0.052988
   5 O :   -0.077646
   6 C :   -0.009117
   7 H :    0.021137
   8 H :   -0.004409
   9 H :    0.036756
  10 H :    0.037375
  11 H :    0.034781
  12 H :    0.035652

  Mayer bond orders larger than 0.1
B(  0-C ,  1-N ) :   1.8748 B(  0-C ,  2-N ) :   0.1253 B(  0-C ,  7-H ) :   0.9561
B(  0-C ,  8-H ) :   0.9247 B(  1-N ,  2-N ) :   1.0877 B(  2-N ,  3-C ) :   0.9729
B(  2-N ,  6-C ) :   0.9535 B(  3-C ,  4-C ) :   0.9507 B(  3-C ,  6-C ) :  -0.1023
B(  3-C ,  9-H ) :   0.9083 B(  3-C , 10-H ) :   0.9270 B(  4-C ,  5-O ) :   2.2576
B(  4-C ,  6-C ) :   0.9431 B(  6-C , 11-H ) :   0.8933 B(  6-C , 12-H ) :   0.9269

FINAL SINGLE POINT ENERGY      -340.023917302449

DIPOLE MOMENT
-------------
                                X             Y             Z
Electronic contribution:      0.99409       0.55760      -3.80886
Nuclear contribution   :     -1.10191      -0.81712       4.22581
                        -----------------------------------------
Total Dipole Moment    :     -0.10783      -0.25952       0.41695
                        -----------------------------------------
Magnitude (a.u.)       :      0.50282
Magnitude (Debye)      :      1.27806

                             ****ORCA TERMINATED NORMALLY****
TOTAL RUN TIME: 0 days 0 hours 0 minutes 6 seconds 332 msec
