                         Program Version 3.0.3 - RELEASE   -
|  1> ! RI PBE def2-SVP def2-SVP/J NBO PAL2
|  2> % maxcore 2000
|  3> % output
|  4>     # printlevel mini
|  5>     print[ P_Basis ] 0
|  6>     print[ P_SCFInfo ] 1
|  7>     print[ P_SCFIterInfo ] 1
|  8>     print[ P_OrbEn ] 0
|  9>     print[ P_Cartesian ] 0
| 10> end
| 11> *xyz 0 1
| 12>  C        1.4166270000    -1.3828370000     2.3672120000
| 13>  N        2.6011230000    -1.6944570000     2.0364280000
| 14>  N        3.5592390000    -0.7478100000     2.0493740000
| 15>  C        4.6812510000    -1.0232130000     1.1890890000
| 16>  C        5.9015070000    -0.1449730000     1.4726180000
| 17>  O        6.6715280000    -1.2656770000     1.9152910000
| 18>  C        5.5790810000    -2.1656860000     1.6663370000
| 19>  H        0.6741100000    -2.1706400000     2.4014880000
| 20>  H        1.1177750000    -0.3628890000     2.6310740000
| 21>  H        3.2212920000     0.2111710000     1.9990000000
| 22>  H        4.3938640000    -1.0852190000     0.1335150000
| 23>  H        5.7541320000     0.5949260000     2.2673310000
| 24>  H        6.3477780000     0.3388850000     0.5980850000
| 25>  H        5.2280370000    -2.6594670000     2.5755010000
| 26>  H        5.8342670000    -2.9122060000     0.9089260000
| 27> *
| 28>
| 29>                          ****END OF INPUT****
 Total Charge           Charge          ....    0
 Multiplicity           Mult            ....    1
 Number of Electrons    NEL             ....   54
 Basis Dimension        Dim             ....  138

MULLIKEN ATOMIC CHARGES
-----------------------
   0 C :   -0.053569
   1 N :   -0.082885
   2 N :   -0.093603
   3 C :   -0.165100
   4 C :    0.273877
   5 O :   -0.366588
   6 C :    0.292032
   7 H :    0.046230
   8 H :    0.003078
   9 H :    0.092339
  10 H :    0.015562
  11 H :    0.001486
  12 H :    0.011381
  13 H :    0.010798
  14 H :    0.014962
Sum of atomic charges:    0.0000000

LOEWDIN ATOMIC CHARGES
----------------------
   0 C :   -0.070656
   1 N :   -0.025926
   2 N :    0.008645
   3 C :   -0.015407
   4 C :    0.082419
   5 O :   -0.185191
   6 C :    0.090733
   7 H :    0.020539
   8 H :   -0.008623
   9 H :    0.042910
  10 H :    0.010287
  11 H :    0.010162
  12 H :    0.010905
  13 H :    0.016148
  14 H :    0.013054

  Mayer bond orders larger than 0.1
B(  0-C ,  1-N ) :   1.8882 B(  0-C ,  2-N ) :   0.1453 B(  0-C ,  7-H ) :   0.9575
B(  0-C ,  8-H ) :   0.9295 B(  1-N ,  2-N ) :   1.0914 B(  2-N ,  3-C ) :   0.9745
B(  2-N ,  9-H ) :   0.9112 B(  3-C ,  4-C ) :   1.0853 B(  3-C ,  6-C ) :   1.1007
B(  3-C , 10-H ) :   0.9111 B(  4-C ,  5-O ) :   1.0578 B(  4-C , 11-H ) :   0.9141
B(  4-C , 12-H ) :   0.9287 B(  5-O ,  6-C ) :   1.0386 B(  6-C , 13-H ) :   0.9116
B(  6-C , 14-H ) :   0.9324

FINAL SINGLE POINT ENERGY      -341.204969827545

DIPOLE MOMENT
-------------
                                X             Y             Z
Electronic contribution:      1.54042      -0.69648       0.57009
Nuclear contribution   :     -2.18091       1.38770      -0.95345
                        -----------------------------------------
Total Dipole Moment    :     -0.64049       0.69122      -0.38335
                        -----------------------------------------
Magnitude (a.u.)       :      1.01733
Magnitude (Debye)      :      2.58585

                             ****ORCA TERMINATED NORMALLY****
TOTAL RUN TIME: 0 days 0 hours 0 minutes 7 seconds 145 msec
