                         Program Version 3.0.3 - RELEASE   -
|  1> ! RI PBE def2-SVP def2-SVP/J NBO PAL2
|  2> % maxcore 2000
|  3> % output
|  4>     # printlevel mini
|  5>     print[ P_Basis ] 0
|  6>     print[ P_SCFInfo ] 1
|  7>     print[ P_SCFIterInfo ] 1
|  8>     print[ P_OrbEn ] 0
|  9>     print[ P_Cartesian ] 0
| 10> end
| 11> *xyz 0 1
| 12>  C        2.8921260000     1.6045390000     1.9071300000
| 13>  N        3.7782690000     0.7614950000     1.5676310000
| 14>  N        3.6867450000    -0.5027970000     2.0163150000
| 15>  C        4.3610650000    -1.4983680000     1.2187490000
| 16>  C        4.6406010000    -2.7187630000     2.0467310000
| 17>  C        3.7328080000    -3.8641680000     2.0512730000
| 18>  O        4.9498960000    -3.8969700000     1.3268930000
| 19>  H        3.0152960000     2.6293340000     1.5794230000
| 20>  H        2.0231680000     1.3466070000     2.5216330000
| 21>  H        2.7680300000    -0.7795730000     2.3537970000
| 22>  H        5.2987270000    -1.0521140000     0.8808590000
| 23>  H        3.7958850000    -1.7947380000     0.3228680000
| 24>  H        5.2550530000    -2.5500210000     2.9298620000
| 25>  H        2.8330530000    -3.8334030000     1.4396410000
| 26>  H        3.6896880000    -4.5162520000     2.9198940000
| 27> *
| 28>
| 29>                          ****END OF INPUT****
 Total Charge           Charge          ....    0
 Multiplicity           Mult            ....    1
 Number of Electrons    NEL             ....   54
 Basis Dimension        Dim             ....  138

MULLIKEN ATOMIC CHARGES
-----------------------
   0 C :   -0.062825
   1 N :   -0.074321
   2 N :   -0.154537
   3 C :    0.248443
   4 C :   -0.062188
   5 C :    0.134173
   6 O :   -0.278600
   7 H :    0.044493
   8 H :    0.002296
   9 H :    0.088181
  10 H :    0.026470
  11 H :    0.000199
  12 H :    0.027337
  13 H :    0.023583
  14 H :    0.037297
Sum of atomic charges:    0.0000000

LOEWDIN ATOMIC CHARGES
----------------------
   0 C :   -0.079272
   1 N :   -0.023693
   2 N :    0.005586
   3 C :    0.009700
   4 C :    0.028353
   5 C :    0.050224
   6 O :   -0.145905
   7 H :    0.019803
   8 H :   -0.009947
   9 H :    0.042935
  10 H :    0.037822
  11 H :    0.014674
  12 H :    0.018437
  13 H :    0.012977
  14 H :    0.018306

  Mayer bond orders larger than 0.1
B(  0-C ,  1-N ) :   1.8840 B(  0-C ,  2-N ) :   0.1483 B(  0-C ,  7-H ) :   0.9575
B(  0-C ,  8-H ) :   0.9292 B(  1-N ,  2-N ) :   1.0944 B(  2-N ,  3-C ) :   0.9903
B(  2-N ,  9-H ) :   0.9173 B(  3-C ,  4-C ) :   1.0343 B(  3-C , 10-H ) :   0.9107
B(  3-C , 11-H ) :   0.9088 B(  4-C ,  5-C ) :   1.0833 B(  4-C ,  6-O ) :   0.9854
B(  4-C , 12-H ) :   0.9385 B(  5-C ,  6-O ) :   1.0062 B(  5-C , 13-H ) :   0.9280
B(  5-C , 14-H ) :   0.9401

FINAL SINGLE POINT ENERGY      -341.205541996288

DIPOLE MOMENT
-------------
                                X             Y             Z
Electronic contribution:      2.21535      -1.21108      -0.56831
Nuclear contribution   :     -3.09499       1.11474       1.03017
                        -----------------------------------------
Total Dipole Moment    :     -0.87964      -0.09634       0.46186
                        -----------------------------------------
Magnitude (a.u.)       :      0.99818
Magnitude (Debye)      :      2.53717

                             ****ORCA TERMINATED NORMALLY****
TOTAL RUN TIME: 0 days 0 hours 0 minutes 6 seconds 361 msec
