                         Program Version 3.0.3 - RELEASE   -
|  1> ! RI PBE def2-SVP def2-SVP/J NBO PAL2
|  2> % maxcore 2000
|  3> % output
|  4>     # printlevel mini
|  5>     print[ P_Basis ] 0
|  6>     print[ P_SCFInfo ] 1
|  7>     print[ P_SCFIterInfo ] 1
|  8>     print[ P_OrbEn ] 0
|  9>     print[ P_Cartesian ] 0
| 10> end
| 11> *xyz 0 1
| 12>  C        4.7486080000    -0.7894230000    -1.2839050000
| 13>  N        5.2878310000     0.2868340000    -0.8893930000
| 14>  N        4.4534310000     1.0139950000    -0.0434990000
| 15>  C        5.0157010000     2.0676770000     0.3887970000
| 16>  C        4.3037440000     2.9557410000     1.3128990000
| 17>  C        5.0454270000     3.6728800000     2.3564450000
| 18>  O        4.6136790000     4.3406040000     1.1938160000
| 19>  H        5.3188110000    -1.4276500000    -1.9519700000
| 20>  H        3.7440220000    -1.0830220000    -0.9744410000
| 21>  H        6.0315690000     2.3394220000     0.0889290000
| 22>  H        3.2559000000     2.7218050000     1.4788020000
| 23>  H        6.1200200000     3.5298040000     2.4431430000
| 24>  H        4.5251470000     3.9355520000     3.2740880000
| 25> *
| 26>
| 27>                          ****END OF INPUT****
 Total Charge           Charge          ....    0
 Multiplicity           Mult            ....    1
 Number of Electrons    NEL             ....   52
 Basis Dimension        Dim             ....  128

MULLIKEN ATOMIC CHARGES
-----------------------
   0 C :    0.032030
   1 N :   -0.105953
   2 N :   -0.102477
   3 C :    0.087051
   4 C :    0.038554
   5 C :    0.149504
   6 O :   -0.274633
   7 H :    0.050691
   8 H :    0.025509
   9 H :   -0.006552
  10 H :    0.026581
  11 H :    0.037337
  12 H :    0.042357
Sum of atomic charges:   -0.0000000

LOEWDIN ATOMIC CHARGES
----------------------
   0 C :    0.015552
   1 N :   -0.041993
   2 N :   -0.054618
   3 C :    0.014767
   4 C :    0.033455
   5 C :    0.069625
   6 O :   -0.135567
   7 H :    0.022394
   8 H :    0.001343
   9 H :    0.008575
  10 H :    0.026184
  11 H :    0.018144
  12 H :    0.022140

  Mayer bond orders larger than 0.1
B(  0-C ,  1-N ) :   1.9202 B(  0-C ,  3-C ) :   0.1089 B(  0-C ,  7-H ) :   0.9518
B(  0-C ,  8-H ) :   0.9244 B(  1-N ,  2-N ) :   0.9837 B(  2-N ,  3-C ) :   1.8215
B(  3-C ,  4-C ) :   1.0368 B(  3-C ,  9-H ) :   0.9254 B(  4-C ,  5-C ) :   1.0402
B(  4-C ,  6-O ) :   0.9513 B(  4-C , 10-H ) :   0.9377 B(  5-C ,  6-O ) :   0.9990
B(  5-C , 11-H ) :   0.9330 B(  5-C , 12-H ) :   0.9359

FINAL SINGLE POINT ENERGY      -339.996373345032

DIPOLE MOMENT
-------------
                                X             Y             Z
Electronic contribution:     -0.25015       1.22879      -1.06367
Nuclear contribution   :      0.28772      -1.64117       1.57996
                        -----------------------------------------
Total Dipole Moment    :      0.03757      -0.41238       0.51629
                        -----------------------------------------
Magnitude (a.u.)       :      0.66183
Magnitude (Debye)      :      1.68225

                             ****ORCA TERMINATED NORMALLY****
TOTAL RUN TIME: 0 days 0 hours 0 minutes 6 seconds 2 msec
