                         Program Version 3.0.3 - RELEASE   -
|  1> ! RI PBE def2-SVP def2-SVP/J NBO PAL2
|  2> % maxcore 2000
|  3> % output
|  4>     # printlevel mini
|  5>     print[ P_Basis ] 0
|  6>     print[ P_SCFInfo ] 1
|  7>     print[ P_SCFIterInfo ] 1
|  8>     print[ P_OrbEn ] 0
|  9>     print[ P_Cartesian ] 0
| 10> end
| 11> *xyz 0 1
| 12>  C        1.9430170000    -1.0959310000    -0.6156030000
| 13>  N        2.7755790000    -0.3014640000     0.2536600000
| 14>  N        3.1763000000     0.8722520000    -0.2631320000
| 15>  C        4.2289440000     1.4263470000     0.1859610000
| 16>  C        4.6264870000     2.7481650000    -0.3108100000
| 17>  C        5.4035250000     3.6741490000     0.5147490000
| 18>  O        6.0253520000     2.9444500000    -0.5235430000
| 19>  H        1.5501450000    -1.9413490000    -0.0484700000
| 20>  H        2.4721270000    -1.4758970000    -1.4994210000
| 21>  H        1.1053060000    -0.4849970000    -0.9522470000
| 22>  H        3.4982030000    -0.8241030000     0.7411390000
| 23>  H        4.8689760000     0.9559990000     0.9430370000
| 24>  H        3.9809350000     3.1548290000    -1.0852400000
| 25>  H        5.6841460000     3.3809410000     1.5243610000
| 26>  H        5.3080490000     4.7445090000     0.3469500000
| 27> *
| 28>
| 29>                          ****END OF INPUT****
 Total Charge           Charge          ....    0
 Multiplicity           Mult            ....    1
 Number of Electrons    NEL             ....   54
 Basis Dimension        Dim             ....  138

MULLIKEN ATOMIC CHARGES
-----------------------
   0 C :    0.088695
   1 N :   -0.129229
   2 N :   -0.074201
   3 C :    0.010876
   4 C :    0.037385
   5 C :    0.144714
   6 O :   -0.290930
   7 H :    0.023111
   8 H :    0.020860
   9 H :    0.037662
  10 H :    0.093671
  11 H :   -0.035283
  12 H :    0.015083
  13 H :    0.020390
  14 H :    0.037197
Sum of atomic charges:   -0.0000000

LOEWDIN ATOMIC CHARGES
----------------------
   0 C :   -0.003460
   1 N :    0.005576
   2 N :   -0.030358
   3 C :   -0.066240
   4 C :    0.031246
   5 C :    0.055526
   6 O :   -0.153509
   7 H :    0.025552
   8 H :    0.011770
   9 H :    0.032028
  10 H :    0.044299
  11 H :   -0.004242
  12 H :    0.022461
  13 H :    0.012065
  14 H :    0.017286

  Mayer bond orders larger than 0.1
B(  0-C ,  1-N ) :   1.0353 B(  0-C ,  7-H ) :   0.9673 B(  0-C ,  8-H ) :   0.9602
B(  0-C ,  9-H ) :   0.9659 B(  1-N ,  2-N ) :   1.0961 B(  1-N ,  3-C ) :   0.1379
B(  1-N , 10-H ) :   0.9204 B(  2-N ,  3-C ) :   1.7933 B(  3-C ,  4-C ) :   1.0704
B(  3-C , 11-H ) :   0.9145 B(  4-C ,  5-C ) :   1.0424 B(  4-C ,  6-O ) :   0.9380
B(  4-C , 12-H ) :   0.9438 B(  5-C ,  6-O ) :   1.0002 B(  5-C , 13-H ) :   0.9285
B(  5-C , 14-H ) :   0.9357

FINAL SINGLE POINT ENERGY      -341.213515999627

DIPOLE MOMENT
-------------
                                X             Y             Z
Electronic contribution:      3.14437       3.15974      -0.29882
Nuclear contribution   :     -3.48922      -3.72299       0.81039
                        -----------------------------------------
Total Dipole Moment    :     -0.34486      -0.56324       0.51157
                        -----------------------------------------
Magnitude (a.u.)       :      0.83539
Magnitude (Debye)      :      2.12338

                             ****ORCA TERMINATED NORMALLY****
TOTAL RUN TIME: 0 days 0 hours 0 minutes 6 seconds 225 msec
