                         Program Version 3.0.3 - RELEASE   -
|  1> ! RI PBE def2-SVP def2-SVP/J NBO PAL2
|  2> % maxcore 2000
|  3> % output
|  4>     # printlevel mini
|  5>     print[ P_Basis ] 0
|  6>     print[ P_SCFInfo ] 1
|  7>     print[ P_SCFIterInfo ] 1
|  8>     print[ P_OrbEn ] 0
|  9>     print[ P_Cartesian ] 0
| 10> end
| 11> *xyz 0 1
| 12>  C        3.9612300000    -0.4828030000     1.1324220000
| 13>  N        4.6705770000    -0.0386920000     0.1818680000
| 14>  N        4.0056530000    -0.0987030000    -1.0428120000
| 15>  C        4.6939890000     0.4075970000    -1.9827460000
| 16>  C        4.1511260000     0.4768290000    -3.3680080000
| 17>  C        3.6131820000     1.8625530000    -3.6629290000
| 18>  O        4.0106350000     2.5671980000    -4.5450900000
| 19>  H        4.3901830000    -0.4802450000     2.1298090000
| 20>  H        2.9489960000    -0.8595530000     0.9755090000
| 21>  H        5.6819850000     0.8286240000    -1.7788820000
| 22>  H        3.3150140000    -0.2249100000    -3.4496380000
| 23>  H        4.9172560000     0.2409040000    -4.1086660000
| 24>  H        2.7972650000     2.1905900000    -2.9853280000
| 25> *
| 26>
| 27>                          ****END OF INPUT****
 Total Charge           Charge          ....    0
 Multiplicity           Mult            ....    1
 Number of Electrons    NEL             ....   52
 Basis Dimension        Dim             ....  128

MULLIKEN ATOMIC CHARGES
-----------------------
   0 C :    0.031596
   1 N :   -0.107458
   2 N :   -0.096792
   3 C :   -0.048345
   4 C :    0.094603
   5 C :    0.073476
   6 O :   -0.144382
   7 H :    0.051743
   8 H :    0.029279
   9 H :    0.017378
  10 H :    0.050886
  11 H :    0.039829
  12 H :    0.008188
Sum of atomic charges:   -0.0000000

LOEWDIN ATOMIC CHARGES
----------------------
   0 C :    0.017360
   1 N :   -0.042190
   2 N :   -0.056141
   3 C :    0.024291
   4 C :   -0.085210
   5 C :    0.101086
   6 O :   -0.089904
   7 H :    0.023121
   8 H :    0.002383
   9 H :    0.007351
  10 H :    0.056224
  11 H :    0.046560
  12 H :   -0.004932

  Mayer bond orders larger than 0.1
B(  0-C ,  1-N ) :   1.9226 B(  0-C ,  3-C ) :   0.1108 B(  0-C ,  7-H ) :   0.9516
B(  0-C ,  8-H ) :   0.9249 B(  1-N ,  2-N ) :   0.9794 B(  2-N ,  3-C ) :   1.8586
B(  3-C ,  4-C ) :   1.0134 B(  3-C ,  9-H ) :   0.9373 B(  4-C ,  5-C ) :   0.9465
B(  4-C , 10-H ) :   0.8967 B(  4-C , 11-H ) :   0.9080 B(  5-C ,  6-O ) :   2.1851
B(  5-C , 12-H ) :   0.9189

FINAL SINGLE POINT ENERGY      -340.027106724339

DIPOLE MOMENT
-------------
                                X             Y             Z
Electronic contribution:      0.54689       1.75922      -1.67025
Nuclear contribution   :     -0.79773      -2.29478       2.15919
                        -----------------------------------------
Total Dipole Moment    :     -0.25083      -0.53556       0.48894
                        -----------------------------------------
Magnitude (a.u.)       :      0.76734
Magnitude (Debye)      :      1.95041

                             ****ORCA TERMINATED NORMALLY****
TOTAL RUN TIME: 0 days 0 hours 0 minutes 6 seconds 25 msec
