                         Program Version 3.0.3 - RELEASE   -
|  1> ! RI PBE def2-SVP def2-SVP/J NBO PAL2
|  2> % maxcore 2000
|  3> % output
|  4>     # printlevel mini
|  5>     print[ P_Basis ] 0
|  6>     print[ P_SCFInfo ] 1
|  7>     print[ P_SCFIterInfo ] 1
|  8>     print[ P_OrbEn ] 0
|  9>     print[ P_Cartesian ] 0
| 10> end
| 11> *xyz 0 1
| 12>  C        1.4119380000     0.8215050000    -0.2397240000
| 13>  N        2.6615040000     0.6242110000    -0.1350750000
| 14>  N        3.2283470000     0.7793820000     1.0698300000
| 15>  C        4.5561920000     0.5808760000     1.2336710000
| 16>  C        5.2336970000     0.7065480000     2.3910080000
| 17>  C        6.6570000000     0.4606960000     2.4100650000
| 18>  O        7.3675020000     0.5421500000     3.3862670000
| 19>  H        0.9648730000     0.6935010000    -1.2170480000
| 20>  H        0.7754440000     1.1111090000     0.6012480000
| 21>  H        2.6556710000     1.0476360000     1.8633510000
| 22>  H        5.0618290000     0.2980350000     0.3155230000
| 23>  H        4.7519230000     0.9879220000     3.3220360000
| 24>  H        7.0858790000     0.1764300000     1.4218390000
| 25> *
| 26>
| 27>                          ****END OF INPUT****
 Total Charge           Charge          ....    0
 Multiplicity           Mult            ....    1
 Number of Electrons    NEL             ....   52
 Basis Dimension        Dim             ....  128

MULLIKEN ATOMIC CHARGES
-----------------------
   0 C :   -0.038908
   1 N :   -0.055791
   2 N :   -0.021582
   3 C :    0.084790
   4 C :   -0.052807
   5 C :    0.105099
   6 O :   -0.194205
   7 H :    0.061023
   8 H :    0.020643
   9 H :    0.109284
  10 H :    0.025844
  11 H :   -0.002916
  12 H :   -0.040471
Sum of atomic charges:   -0.0000000

LOEWDIN ATOMIC CHARGES
----------------------
   0 C :   -0.040811
   1 N :   -0.015144
   2 N :    0.100178
   3 C :    0.040825
   4 C :   -0.133840
   5 C :    0.052023
   6 O :   -0.145306
   7 H :    0.028826
   8 H :   -0.000539
   9 H :    0.066330
  10 H :    0.037592
  11 H :    0.029043
  12 H :   -0.019176

  Mayer bond orders larger than 0.1
B(  0-C ,  1-N ) :   1.8744 B(  0-C ,  7-H ) :   0.9566 B(  0-C ,  8-H ) :   0.9321
B(  1-N ,  2-N ) :   1.0596 B(  2-N ,  3-C ) :   1.2135 B(  2-N ,  9-H ) :   0.9107
B(  3-C ,  4-C ) :   1.5567 B(  3-C , 10-H ) :   0.9538 B(  4-C ,  5-C ) :   1.0973
B(  4-C , 11-H ) :   0.9619 B(  5-C ,  6-O ) :   2.0732 B(  5-C , 12-H ) :   0.9322

FINAL SINGLE POINT ENERGY      -340.046811083887

DIPOLE MOMENT
-------------
                                X             Y             Z
Electronic contribution:      3.04583      -0.19002       1.62796
Nuclear contribution   :     -5.03060       0.40073      -2.28373
                        -----------------------------------------
Total Dipole Moment    :     -1.98477       0.21071      -0.65577
                        -----------------------------------------
Magnitude (a.u.)       :      2.10089
Magnitude (Debye)      :      5.34004

                             ****ORCA TERMINATED NORMALLY****
TOTAL RUN TIME: 0 days 0 hours 0 minutes 6 seconds 236 msec
