                         Program Version 3.0.3 - RELEASE   -
|  1> ! RI PBE def2-SVP def2-SVP/J NBO PAL2
|  2> % maxcore 2000
|  3> % output
|  4>     # printlevel mini
|  5>     print[ P_Basis ] 0
|  6>     print[ P_SCFInfo ] 1
|  7>     print[ P_SCFIterInfo ] 1
|  8>     print[ P_OrbEn ] 0
|  9>     print[ P_Cartesian ] 0
| 10> end
| 11> *xyz 0 1
| 12>  C        1.2048590000     0.4488550000    -1.5900620000
| 13>  N        2.4019420000     0.8513260000    -1.7134240000
| 14>  N        3.0291180000     1.3916690000    -0.6518630000
| 15>  C        4.4756280000     1.3313500000    -0.6997050000
| 16>  C        5.0185190000     2.1513890000    -1.8498330000
| 17>  C        6.5111270000     2.1915550000    -1.9105640000
| 18>  O        7.2455220000     1.6671950000    -1.1167210000
| 19>  H        0.7038780000     0.0634840000    -2.4695980000
| 20>  H        0.6563180000     0.4856880000    -0.6430050000
| 21>  H        2.6340550000     1.1419500000     0.2504450000
| 22>  H        4.8442420000     0.3006020000    -0.7773980000
| 23>  H        4.8481290000     1.7309440000     0.2457380000
| 24>  H        4.6579140000     3.1870870000    -1.7961240000
| 25>  H        4.6451920000     1.7718840000    -2.8081420000
| 26>  H        6.9278480000     2.7648120000    -2.7675540000
| 27> *
| 28>
| 29>                          ****END OF INPUT****
 Total Charge           Charge          ....    0
 Multiplicity           Mult            ....    1
 Number of Electrons    NEL             ....   54
 Basis Dimension        Dim             ....  138

MULLIKEN ATOMIC CHARGES
-----------------------
   0 C :   -0.056831
   1 N :   -0.090079
   2 N :   -0.122892
   3 C :    0.114670
   4 C :   -0.019987
   5 C :    0.083232
   6 O :   -0.168918
   7 H :    0.043977
   8 H :    0.003825
   9 H :    0.091290
  10 H :    0.020576
  11 H :    0.016427
  12 H :    0.039926
  13 H :    0.051711
  14 H :   -0.006926
Sum of atomic charges:   -0.0000000

LOEWDIN ATOMIC CHARGES
----------------------
   0 C :   -0.074849
   1 N :   -0.027387
   2 N :    0.004930
   3 C :    0.015578
   4 C :   -0.089082
   5 C :    0.093629
   6 O :   -0.114504
   7 H :    0.019347
   8 H :   -0.008795
   9 H :    0.045052
  10 H :    0.017270
  11 H :    0.028816
  12 H :    0.050283
  13 H :    0.050317
  14 H :   -0.010605

  Mayer bond orders larger than 0.1
B(  0-C ,  1-N ) :   1.8888 B(  0-C ,  2-N ) :   0.1450 B(  0-C ,  7-H ) :   0.9573
B(  0-C ,  8-H ) :   0.9283 B(  1-N ,  2-N ) :   1.0955 B(  2-N ,  3-C ) :   1.0431
B(  2-N ,  9-H ) :   0.9191 B(  3-C ,  4-C ) :   1.0813 B(  3-C , 10-H ) :   0.9334
B(  3-C , 11-H ) :   0.9324 B(  4-C ,  5-C ) :   0.9817 B(  4-C , 12-H ) :   0.8971
B(  4-C , 13-H ) :   0.9001 B(  5-C ,  6-O ) :   2.1706 B(  5-C , 14-H ) :   0.9321

FINAL SINGLE POINT ENERGY      -341.241284493169

DIPOLE MOMENT
-------------
                                X             Y             Z
Electronic contribution:      3.33538       0.17220       0.18353
Nuclear contribution   :     -4.05444       0.00607      -0.01107
                        -----------------------------------------
Total Dipole Moment    :     -0.71905       0.17828       0.17246
                        -----------------------------------------
Magnitude (a.u.)       :      0.76063
Magnitude (Debye)      :      1.93337

                             ****ORCA TERMINATED NORMALLY****
TOTAL RUN TIME: 0 days 0 hours 0 minutes 6 seconds 656 msec
