                         Program Version 3.0.3 - RELEASE   -
|  1> ! RI PBE def2-SVP def2-SVP/J NBO PAL2
|  2> % maxcore 2000
|  3> % output
|  4>     # printlevel mini
|  5>     print[ P_Basis ] 0
|  6>     print[ P_SCFInfo ] 1
|  7>     print[ P_SCFIterInfo ] 1
|  8>     print[ P_OrbEn ] 0
|  9>     print[ P_Cartesian ] 0
| 10> end
| 11> *xyz 0 1
| 12>  C        0.8679950000    -0.3954210000     0.2055810000
| 13>  N        2.3059870000    -0.3888480000     0.1148010000
| 14>  N        2.9857040000     0.6157910000    -0.4618020000
| 15>  C        2.3623930000     1.6091930000    -0.9533370000
| 16>  C        3.0419700000    -1.4461970000     0.6333020000
| 17>  C        4.5339680000    -1.3547940000     0.4945040000
| 18>  O        2.4846380000    -2.3805980000     1.1645710000
| 19>  H        0.5132460000     0.4677600000     0.7770920000
| 20>  H        0.5807610000    -1.3128030000     0.7119720000
| 21>  H        0.4179490000    -0.3684390000    -0.7915600000
| 22>  H        2.9689710000     2.3858810000    -1.4039840000
| 23>  H        1.2804630000     1.7296520000    -0.9518710000
| 24>  H        4.9184480000    -0.4615930000     0.9881630000
| 25>  H        4.8255350000    -1.2831270000    -0.5538960000
| 26>  H        4.9591630000    -2.2485780000     0.9450630000
| 27> *
| 28>
| 29>                          ****END OF INPUT****
 Total Charge           Charge          ....    0
 Multiplicity           Mult            ....    1
 Number of Electrons    NEL             ....   54
 Basis Dimension        Dim             ....  138

MULLIKEN ATOMIC CHARGES
-----------------------
   0 C :    0.084230
   1 N :   -0.188379
   2 N :   -0.053552
   3 C :   -0.056079
   4 C :    0.020267
   5 C :    0.062298
   6 O :   -0.197627
   7 H :    0.042758
   8 H :    0.056161
   9 H :    0.042226
  10 H :    0.044500
  11 H :    0.022403
  12 H :    0.044141
  13 H :    0.041947
  14 H :    0.034705
Sum of atomic charges:   -0.0000000

LOEWDIN ATOMIC CHARGES
----------------------
   0 C :    0.004550
   1 N :    0.023261
   2 N :   -0.017699
   3 C :   -0.054718
   4 C :    0.040855
   5 C :   -0.082827
   6 O :   -0.162815
   7 H :    0.028581
   8 H :    0.038794
   9 H :    0.028584
  10 H :    0.022821
  11 H :   -0.000968
  12 H :    0.046701
  13 H :    0.046036
  14 H :    0.038844

  Mayer bond orders larger than 0.1
B(  0-C ,  1-N ) :   0.9805 B(  0-C ,  7-H ) :   0.9558 B(  0-C ,  8-H ) :   0.9366
B(  0-C ,  9-H ) :   0.9551 B(  1-N ,  2-N ) :   1.0976 B(  1-N ,  4-C ) :   1.0445
B(  2-N ,  3-C ) :   1.8792 B(  3-C , 10-H ) :   0.9538 B(  3-C , 11-H ) :   0.9241
B(  4-C ,  5-C ) :   1.0639 B(  4-C ,  6-O ) :   2.0785 B(  5-C , 12-H ) :   0.9310
B(  5-C , 13-H ) :   0.9322 B(  5-C , 14-H ) :   0.9442

FINAL SINGLE POINT ENERGY      -341.278250513461

DIPOLE MOMENT
-------------
                                X             Y             Z
Electronic contribution:      0.31727      -2.20408       1.15665
Nuclear contribution   :     -0.61537       3.08487      -1.60458
                        -----------------------------------------
Total Dipole Moment    :     -0.29810       0.88080      -0.44793
                        -----------------------------------------
Magnitude (a.u.)       :      1.03214
Magnitude (Debye)      :      2.62349

                             ****ORCA TERMINATED NORMALLY****
TOTAL RUN TIME: 0 days 0 hours 0 minutes 6 seconds 916 msec
