                         Program Version 3.0.3 - RELEASE   -
|  1> ! RI PBE def2-SVP def2-SVP/J NBO PAL2
|  2> % maxcore 2000
|  3> % output
|  4>     # printlevel mini
|  5>     print[ P_Basis ] 0
|  6>     print[ P_SCFInfo ] 1
|  7>     print[ P_SCFIterInfo ] 1
|  8>     print[ P_OrbEn ] 0
|  9>     print[ P_Cartesian ] 0
| 10> end
| 11> *xyz 0 1
| 12>  C        5.9477540000    -0.9654310000    -0.3736590000
| 13>  N        6.0046410000     0.1574480000     0.5310840000
| 14>  N        4.8043670000     0.7406440000     0.7688500000
| 15>  C        4.6110440000     1.3557430000     1.8632880000
| 16>  C        3.3393120000     2.0874880000     2.1400380000
| 17>  C        2.4111810000     2.1979560000     0.9417020000
| 18>  O        1.9749100000     0.9484410000     0.4674280000
| 19>  H        6.9663620000    -1.2963260000    -0.5821190000
| 20>  H        5.4945480000    -0.6411580000    -1.3111600000
| 21>  H        5.3716530000    -1.8163210000     0.0147010000
| 22>  H        6.5429870000    -0.0250300000     1.3738550000
| 23>  H        5.3851600000     1.3651520000     2.6426760000
| 24>  H        3.5836360000     3.0949830000     2.5008010000
| 25>  H        2.8150540000     1.5907900000     2.9669930000
| 26>  H        2.9154440000     2.7666290000     0.1476580000
| 27>  H        1.5163940000     2.7560120000     1.2281950000
| 28>  H        2.7787520000     0.4893800000     0.1909890000
| 29> *
| 30>
| 31>                          ****END OF INPUT****
 Total Charge           Charge          ....    0
 Multiplicity           Mult            ....    1
 Number of Electrons    NEL             ....   56
 Basis Dimension        Dim             ....  148

MULLIKEN ATOMIC CHARGES
-----------------------
   0 C :    0.078669
   1 N :   -0.127344
   2 N :   -0.104989
   3 C :   -0.086156
   4 C :    0.013927
   5 C :    0.179509
   6 O :   -0.298759
   7 H :    0.024602
   8 H :    0.038371
   9 H :    0.019719
  10 H :    0.092051
  11 H :   -0.013018
  12 H :    0.013456
  13 H :    0.027540
  14 H :   -0.003708
  15 H :    0.003449
  16 H :    0.142682
Sum of atomic charges:   -0.0000000

LOEWDIN ATOMIC CHARGES
----------------------
   0 C :   -0.005983
   1 N :   -0.005845
   2 N :   -0.041578
   3 C :   -0.040680
   4 C :   -0.075487
   5 C :    0.056972
   6 O :   -0.132197
   7 H :    0.026634
   8 H :    0.030683
   9 H :    0.009543
  10 H :    0.044217
  11 H :   -0.004315
  12 H :    0.036596
  13 H :    0.037525
  14 H :    0.004741
  15 H :    0.019281
  16 H :    0.039893

  Mayer bond orders larger than 0.1
B(  0-C ,  1-N ) :   1.0385 B(  0-C ,  7-H ) :   0.9678 B(  0-C ,  8-H ) :   0.9674
B(  0-C ,  9-H ) :   0.9594 B(  1-N ,  2-N ) :   1.0778 B(  1-N ,  3-C ) :   0.1331
B(  1-N , 10-H ) :   0.9221 B(  2-N ,  3-C ) :   1.8389 B(  3-C ,  4-C ) :   1.0482
B(  3-C , 11-H ) :   0.9342 B(  4-C ,  5-C ) :   1.0926 B(  4-C , 12-H ) :   0.9011
B(  4-C , 13-H ) :   0.8997 B(  5-C ,  6-O ) :   1.0819 B(  5-C , 14-H ) :   0.9345
B(  5-C , 15-H ) :   0.9344 B(  6-O , 16-H ) :   0.9649

FINAL SINGLE POINT ENERGY      -342.445877544353

DIPOLE MOMENT
-------------
                                X             Y             Z
Electronic contribution:     -0.73908       0.46789       0.15086
Nuclear contribution   :      1.85230      -0.70731       0.34473
                        -----------------------------------------
Total Dipole Moment    :      1.11322      -0.23943       0.49559
                        -----------------------------------------
Magnitude (a.u.)       :      1.24185
Magnitude (Debye)      :      3.15654

                             ****ORCA TERMINATED NORMALLY****
TOTAL RUN TIME: 0 days 0 hours 0 minutes 7 seconds 663 msec
