                         Program Version 3.0.3 - RELEASE   -
|  1> ! RI PBE def2-SVP def2-SVP/J NBO PAL2
|  2> % maxcore 2000
|  3> % output
|  4>     # printlevel mini
|  5>     print[ P_Basis ] 0
|  6>     print[ P_SCFInfo ] 1
|  7>     print[ P_SCFIterInfo ] 1
|  8>     print[ P_OrbEn ] 0
|  9>     print[ P_Cartesian ] 0
| 10> end
| 11> *xyz 0 1
| 12>  C        5.2373590000    -2.2702490000     1.3138210000
| 13>  N        4.8379280000    -1.2852050000     0.3386440000
| 14>  N        4.2262580000    -0.2018620000     0.8626100000
| 15>  C        4.1677490000     0.8739720000     0.1736850000
| 16>  C        4.7874730000     1.0455350000    -1.1776680000
| 17>  C        3.4068390000     2.0174200000     0.7675400000
| 18>  O        4.2098480000     3.1744930000     0.9382110000
| 19>  H        5.5932790000    -3.1595000000     0.7905520000
| 20>  H        4.3686200000    -2.5449340000     1.9123750000
| 21>  H        6.0259500000    -1.9188820000     1.9925450000
| 22>  H        5.5409460000    -1.0901410000    -0.3661160000
| 23>  H        4.3380960000     0.3558220000    -1.9013750000
| 24>  H        5.8651530000     0.8409890000    -1.1647710000
| 25>  H        4.6567030000     2.0664240000    -1.5340710000
| 26>  H        2.9582810000     1.6855560000     1.7097150000
| 27>  H        2.6010580000     2.3284410000     0.0945810000
| 28>  H        4.9076710000     2.9517210000     1.5606230000
| 29> *
| 30>
| 31>                          ****END OF INPUT****
 Total Charge           Charge          ....    0
 Multiplicity           Mult            ....    1
 Number of Electrons    NEL             ....   56
 Basis Dimension        Dim             ....  148

MULLIKEN ATOMIC CHARGES
-----------------------
   0 C :    0.088257
   1 N :   -0.138764
   2 N :   -0.065827
   3 C :   -0.317849
   4 C :    0.037086
   5 C :    0.290777
   6 O :   -0.296910
   7 H :    0.020758
   8 H :    0.034934
   9 H :    0.016574
  10 H :    0.091590
  11 H :    0.038723
  12 H :    0.030997
  13 H :    0.025755
  14 H :   -0.008066
  15 H :    0.005381
  16 H :    0.146583
Sum of atomic charges:   -0.0000000

LOEWDIN ATOMIC CHARGES
----------------------
   0 C :   -0.005039
   1 N :   -0.001289
   2 N :   -0.048739
   3 C :   -0.097655
   4 C :   -0.083721
   5 C :    0.051903
   6 O :   -0.126245
   7 H :    0.023947
   8 H :    0.030219
   9 H :    0.009350
  10 H :    0.041920
  11 H :    0.037855
  12 H :    0.031857
  13 H :    0.038632
  14 H :    0.009054
  15 H :    0.022528
  16 H :    0.065424

  Mayer bond orders larger than 0.1
B(  0-C ,  1-N ) :   1.0371 B(  0-C ,  7-H ) :   0.9677 B(  0-C ,  8-H ) :   0.9662
B(  0-C ,  9-H ) :   0.9606 B(  1-N ,  2-N ) :   1.0862 B(  1-N ,  3-C ) :   0.1116
B(  1-N , 10-H ) :   0.9153 B(  2-N ,  3-C ) :   1.8667 B(  3-C ,  4-C ) :   1.0666
B(  3-C ,  5-C ) :   1.0589 B(  4-C , 11-H ) :   0.9385 B(  4-C , 12-H ) :   0.9330
B(  4-C , 13-H ) :   0.9364 B(  5-C ,  6-O ) :   1.0262 B(  5-C , 14-H ) :   0.9206
B(  5-C , 15-H ) :   0.9131 B(  6-O , 16-H ) :   0.9863

FINAL SINGLE POINT ENERGY      -342.446739268339

DIPOLE MOMENT
-------------
                                X             Y             Z
Electronic contribution:     -1.60445       2.67985       1.30358
Nuclear contribution   :      2.35272      -3.28347      -1.48827
                        -----------------------------------------
Total Dipole Moment    :      0.74827      -0.60362      -0.18469
                        -----------------------------------------
Magnitude (a.u.)       :      0.97896
Magnitude (Debye)      :      2.48833

                             ****ORCA TERMINATED NORMALLY****
TOTAL RUN TIME: 0 days 0 hours 0 minutes 7 seconds 832 msec
