                         Program Version 3.0.3 - RELEASE   -
|  1> ! RI PBE def2-SVP def2-SVP/J NBO PAL2
|  2> % maxcore 2000
|  3> % output
|  4>     # printlevel mini
|  5>     print[ P_Basis ] 0
|  6>     print[ P_SCFInfo ] 1
|  7>     print[ P_SCFIterInfo ] 1
|  8>     print[ P_OrbEn ] 0
|  9>     print[ P_Cartesian ] 0
| 10> end
| 11> *xyz 0 1
| 12>  C        3.2756220000     0.3654450000     1.7757410000
| 13>  N        4.3185820000     0.2352050000     0.7958330000
| 14>  N        4.0337370000     0.3998000000    -0.4676670000
| 15>  C        4.9665100000     0.2840450000    -1.3579990000
| 16>  C        6.3927320000    -0.0321830000    -1.0691600000
| 17>  C        4.5119880000     0.4925870000    -2.7277160000
| 18>  O        5.2243570000     0.4291090000    -3.7040200000
| 19>  H        3.7052690000     0.1944590000     2.7627450000
| 20>  H        2.4823650000    -0.3680220000     1.6084940000
| 21>  H        2.8364320000     1.3663840000     1.7548370000
| 22>  H        5.2615520000     0.0183680000     1.0860620000
| 23>  H        6.4996250000    -1.0030550000    -0.5709550000
| 24>  H        6.8534010000     0.7260800000    -0.4249230000
| 25>  H        6.9461960000    -0.0662270000    -2.0070480000
| 26>  H        3.4302520000     0.7204170000    -2.8031220000
| 27> *
| 28>
| 29>                          ****END OF INPUT****
 Total Charge           Charge          ....    0
 Multiplicity           Mult            ....    1
 Number of Electrons    NEL             ....   54
 Basis Dimension        Dim             ....  138

MULLIKEN ATOMIC CHARGES
-----------------------
   0 C :    0.104946
   1 N :   -0.120796
   2 N :   -0.035638
   3 C :   -0.241467
   4 C :    0.040041
   5 C :    0.154481
   6 O :   -0.188000
   7 H :    0.023934
   8 H :    0.047084
   9 H :    0.043193
  10 H :    0.101966
  11 H :    0.033880
  12 H :    0.036614
  13 H :    0.035314
  14 H :   -0.035553
Sum of atomic charges:   -0.0000000

LOEWDIN ATOMIC CHARGES
----------------------
   0 C :    0.007401
   1 N :    0.054592
   2 N :   -0.008882
   3 C :   -0.118418
   4 C :   -0.083662
   5 C :    0.050077
   6 O :   -0.142824
   7 H :    0.030128
   8 H :    0.030538
   9 H :    0.029955
  10 H :    0.050503
  11 H :    0.034736
  12 H :    0.034919
  13 H :    0.043863
  14 H :   -0.012926

  Mayer bond orders larger than 0.1
B(  0-C ,  1-N ) :   1.0128 B(  0-C ,  7-H ) :   0.9660 B(  0-C ,  8-H ) :   0.9651
B(  0-C ,  9-H ) :   0.9643 B(  1-N ,  2-N ) :   1.1698 B(  1-N ,  3-C ) :   0.1216
B(  1-N , 10-H ) :   0.9189 B(  2-N ,  3-C ) :   1.6890 B(  3-C ,  4-C ) :   1.0964
B(  3-C ,  5-C ) :   1.0485 B(  4-C , 11-H ) :   0.9339 B(  4-C , 12-H ) :   0.9370
B(  4-C , 13-H ) :   0.9174 B(  5-C ,  6-O ) :   2.0795 B(  5-C , 14-H ) :   0.9202

FINAL SINGLE POINT ENERGY      -341.265564961073

DIPOLE MOMENT
-------------
                                X             Y             Z
Electronic contribution:     -0.49983       0.62464      -6.20061
Nuclear contribution   :      0.51938      -0.80863       8.32444
                        -----------------------------------------
Total Dipole Moment    :      0.01955      -0.18399       2.12383
                        -----------------------------------------
Magnitude (a.u.)       :      2.13187
Magnitude (Debye)      :      5.41879

                             ****ORCA TERMINATED NORMALLY****
TOTAL RUN TIME: 0 days 0 hours 0 minutes 6 seconds 803 msec
