                         Program Version 3.0.3 - RELEASE   -
|  1> ! RI PBE def2-SVP def2-SVP/J NBO PAL2
|  2> % maxcore 2000
|  3> % output
|  4>     # printlevel mini
|  5>     print[ P_Basis ] 0
|  6>     print[ P_SCFInfo ] 1
|  7>     print[ P_SCFIterInfo ] 1
|  8>     print[ P_OrbEn ] 0
|  9>     print[ P_Cartesian ] 0
| 10> end
| 11> *xyz 0 1
| 12>  C        2.4568980000    -0.2517920000     1.2019450000
| 13>  N        3.3442990000    -0.5210400000     0.0956960000
| 14>  N        3.5229380000     0.5274610000    -0.7402870000
| 15>  C        4.5744640000     0.6260190000    -1.4394530000
| 16>  C        4.6996350000     1.7563160000    -2.4175550000
| 17>  C        4.9699760000     1.2443680000    -3.8243390000
| 18>  O        3.5544060000     2.5643020000    -2.4071960000
| 19>  H        2.2916380000    -1.1811830000     1.7491880000
| 20>  H        1.4989110000     0.0911520000     0.8101050000
| 21>  H        2.8392120000     0.5072390000     1.8974080000
| 22>  H        4.2084890000    -0.9803830000     0.3676180000
| 23>  H        5.3997590000    -0.0917430000    -1.3697330000
| 24>  H        5.5665110000     2.3634470000    -2.1054010000
| 25>  H        4.1399220000     0.6214440000    -4.1643400000
| 26>  H        5.8921080000     0.6577820000    -3.8605090000
| 27>  H        5.0719150000     2.0892170000    -4.5073810000
| 28>  H        2.9679190000     2.1875840000    -1.7349750000
| 29> *
| 30>
| 31>                          ****END OF INPUT****
 Total Charge           Charge          ....    0
 Multiplicity           Mult            ....    1
 Number of Electrons    NEL             ....   56
 Basis Dimension        Dim             ....  148

MULLIKEN ATOMIC CHARGES
-----------------------
   0 C :    0.077593
   1 N :   -0.126305
   2 N :   -0.113789
   3 C :   -0.068606
   4 C :    0.113730
   5 C :    0.005033
   6 O :   -0.256188
   7 H :    0.026967
   8 H :    0.037127
   9 H :    0.021513
  10 H :    0.094767
  11 H :   -0.013812
  12 H :    0.001865
  13 H :    0.020777
  14 H :    0.006937
  15 H :    0.032110
  16 H :    0.140281
Sum of atomic charges:   -0.0000000

LOEWDIN ATOMIC CHARGES
----------------------
   0 C :   -0.005584
   1 N :   -0.003228
   2 N :   -0.041891
   3 C :   -0.053741
   4 C :    0.032136
   5 C :   -0.070602
   6 O :   -0.115140
   7 H :    0.026751
   8 H :    0.030818
   9 H :    0.010341
  10 H :    0.046555
  11 H :   -0.001450
  12 H :    0.017466
  13 H :    0.026627
  14 H :    0.023311
  15 H :    0.031866
  16 H :    0.045765

  Mayer bond orders larger than 0.1
B(  0-C ,  1-N ) :   1.0366 B(  0-C ,  7-H ) :   0.9682 B(  0-C ,  8-H ) :   0.9674
B(  0-C ,  9-H ) :   0.9601 B(  1-N ,  2-N ) :   1.0883 B(  1-N ,  3-C ) :   0.1311
B(  1-N , 10-H ) :   0.9249 B(  2-N ,  3-C ) :   1.8348 B(  2-N , 16-H ) :   0.1071
B(  3-C ,  4-C ) :   0.9995 B(  3-C , 11-H ) :   0.9331 B(  4-C ,  5-C ) :   1.0445
B(  4-C ,  6-O ) :   1.1652 B(  4-C , 12-H ) :   0.8936 B(  5-C , 13-H ) :   0.9568
B(  5-C , 14-H ) :   0.9495 B(  5-C , 15-H ) :   0.9548 B(  6-O , 16-H ) :   0.9466

FINAL SINGLE POINT ENERGY      -342.448307600403

DIPOLE MOMENT
-------------
                                X             Y             Z
Electronic contribution:     -0.78912       1.31964       0.28963
Nuclear contribution   :      1.22526      -2.18718       0.58792
                        -----------------------------------------
Total Dipole Moment    :      0.43614      -0.86755       0.87756
                        -----------------------------------------
Magnitude (a.u.)       :      1.30880
Magnitude (Debye)      :      3.32671

                             ****ORCA TERMINATED NORMALLY****
TOTAL RUN TIME: 0 days 0 hours 0 minutes 7 seconds 495 msec
