                         Program Version 3.0.3 - RELEASE   -
|  1> ! RI PBE def2-SVP def2-SVP/J NBO PAL2
|  2> % maxcore 2000
|  3> % output
|  4>     # printlevel mini
|  5>     print[ P_Basis ] 0
|  6>     print[ P_SCFInfo ] 1
|  7>     print[ P_SCFIterInfo ] 1
|  8>     print[ P_OrbEn ] 0
|  9>     print[ P_Cartesian ] 0
| 10> end
| 11> *xyz 0 1
| 12>  C        1.6264550000     0.4885500000     0.3680430000
| 13>  N        2.9071760000     0.0555360000    -0.1154060000
| 14>  N        3.4038380000    -1.0819310000     0.2919500000
| 15>  C        4.5487360000    -1.4778960000    -0.1350050000
| 16>  C        5.1132200000    -2.7514140000     0.3161430000
| 17>  C        4.3205170000    -3.5815340000     1.2896700000
| 18>  O        6.1980670000    -3.1068970000    -0.1002560000
| 19>  H        1.3947030000     1.4514100000    -0.0872670000
| 20>  H        1.6315180000     0.6112800000     1.4547760000
| 21>  H        0.8385390000    -0.2206340000     0.0991220000
| 22>  H        3.4261080000     0.6275120000    -0.7696040000
| 23>  H        5.1516580000    -0.9000430000    -0.8424370000
| 24>  H        4.1278750000    -3.0183670000     2.2053020000
| 25>  H        4.8807020000    -4.4864020000     1.5175330000
| 26>  H        3.3460970000    -3.8388690000     0.8690340000
| 27> *
| 28>
| 29>                          ****END OF INPUT****
 Total Charge           Charge          ....    0
 Multiplicity           Mult            ....    1
 Number of Electrons    NEL             ....   54
 Basis Dimension        Dim             ....  138

MULLIKEN ATOMIC CHARGES
-----------------------
   0 C :    0.104197
   1 N :   -0.117671
   2 N :   -0.024565
   3 C :   -0.053460
   4 C :   -0.041510
   5 C :    0.059558
   6 O :   -0.191201
   7 H :    0.023909
   8 H :    0.044400
   9 H :    0.042589
  10 H :    0.105234
  11 H :   -0.034268
  12 H :    0.031080
  13 H :    0.022208
  14 H :    0.029500
Sum of atomic charges:   -0.0000000

LOEWDIN ATOMIC CHARGES
----------------------
   0 C :    0.005622
   1 N :    0.050174
   2 N :   -0.006464
   3 C :   -0.096337
   4 C :    0.021620
   5 C :   -0.086521
   6 O :   -0.146553
   7 H :    0.031584
   8 H :    0.029156
   9 H :    0.028737
  10 H :    0.051834
  11 H :   -0.000732
  12 H :    0.042199
  13 H :    0.033543
  14 H :    0.042137

  Mayer bond orders larger than 0.1
B(  0-C ,  1-N ) :   1.0200 B(  0-C ,  7-H ) :   0.9637 B(  0-C ,  8-H ) :   0.9643
B(  0-C ,  9-H ) :   0.9639 B(  1-N ,  2-N ) :   1.1729 B(  1-N ,  3-C ) :   0.1456
B(  1-N , 10-H ) :   0.9226 B(  2-N ,  3-C ) :   1.7123 B(  3-C ,  4-C ) :   1.0425
B(  3-C , 11-H ) :   0.9318 B(  4-C ,  5-C ) :   1.0491 B(  4-C ,  6-O ) :   2.0823
B(  5-C , 12-H ) :   0.9355 B(  5-C , 13-H ) :   0.9411 B(  5-C , 14-H ) :   0.9346

FINAL SINGLE POINT ENERGY      -341.265165084309

DIPOLE MOMENT
-------------
                                X             Y             Z
Electronic contribution:      5.27701      -1.51626      -2.15475
Nuclear contribution   :     -6.70057       2.95568       2.10719
                        -----------------------------------------
Total Dipole Moment    :     -1.42355       1.43942      -0.04757
                        -----------------------------------------
Magnitude (a.u.)       :      2.02502
Magnitude (Debye)      :      5.14718

                             ****ORCA TERMINATED NORMALLY****
TOTAL RUN TIME: 0 days 0 hours 0 minutes 6 seconds 964 msec
