                         Program Version 3.0.3 - RELEASE   -
|  1> ! RI PBE def2-SVP def2-SVP/J NBO PAL2
|  2> % maxcore 2000
|  3> % output
|  4>     # printlevel mini
|  5>     print[ P_Basis ] 0
|  6>     print[ P_SCFInfo ] 1
|  7>     print[ P_SCFIterInfo ] 1
|  8>     print[ P_OrbEn ] 0
|  9>     print[ P_Cartesian ] 0
| 10> end
| 11> *xyz 0 1
| 12>  C        3.1661600000     1.3166070000     0.3608470000
| 13>  N        4.2763900000     0.6524160000    -0.2774300000
| 14>  N        3.9676740000    -0.5293770000    -0.8490850000
| 15>  C        4.8805170000    -1.3976610000    -1.0084570000
| 16>  C        4.5799770000    -2.6735630000    -1.7088730000
| 17>  C        4.9825730000    -3.9107540000    -0.9561570000
| 18>  O        5.5350940000    -3.9210790000     0.1087580000
| 19>  H        3.4831570000     2.3160530000     0.6633250000
| 20>  H        2.7848280000     0.7834260000     1.2418540000
| 21>  H        2.3542710000     1.4145690000    -0.3601000000
| 22>  H        5.1280690000     0.6414200000     0.2772480000
| 23>  H        5.9011660000    -1.2389660000    -0.6438290000
| 24>  H        5.0886600000    -2.7331130000    -2.6842040000
| 25>  H        3.5098450000    -2.7349050000    -1.9347090000
| 26>  H        4.7376190000    -4.8634820000    -1.4752810000
| 27> *
| 28>
| 29>                          ****END OF INPUT****
 Total Charge           Charge          ....    0
 Multiplicity           Mult            ....    1
 Number of Electrons    NEL             ....   54
 Basis Dimension        Dim             ....  138

MULLIKEN ATOMIC CHARGES
-----------------------
   0 C :    0.089509
   1 N :   -0.134873
   2 N :   -0.075354
   3 C :   -0.087315
   4 C :    0.062282
   5 C :    0.069139
   6 O :   -0.159781
   7 H :    0.020462
   8 H :    0.017292
   9 H :    0.037247
  10 H :    0.093449
  11 H :   -0.013480
  12 H :    0.046162
  13 H :    0.042597
  14 H :   -0.007336
Sum of atomic charges:   -0.0000000

LOEWDIN ATOMIC CHARGES
----------------------
   0 C :   -0.004369
   1 N :   -0.001214
   2 N :   -0.033116
   3 C :   -0.050935
   4 C :   -0.093484
   5 C :    0.091636
   6 O :   -0.109687
   7 H :    0.024749
   8 H :    0.010275
   9 H :    0.030795
  10 H :    0.044178
  11 H :   -0.004267
  12 H :    0.053990
  13 H :    0.054465
  14 H :   -0.013017

  Mayer bond orders larger than 0.1
B(  0-C ,  1-N ) :   1.0399 B(  0-C ,  7-H ) :   0.9671 B(  0-C ,  8-H ) :   0.9588
B(  0-C ,  9-H ) :   0.9669 B(  1-N ,  2-N ) :   1.0923 B(  1-N ,  3-C ) :   0.1366
B(  1-N , 10-H ) :   0.9219 B(  2-N ,  3-C ) :   1.8583 B(  3-C ,  4-C ) :   1.0293
B(  3-C , 11-H ) :   0.9341 B(  4-C ,  5-C ) :   0.9547 B(  4-C , 12-H ) :   0.8866
B(  4-C , 13-H ) :   0.9001 B(  5-C ,  6-O ) :   2.1955 B(  5-C , 14-H ) :   0.9248

FINAL SINGLE POINT ENERGY      -341.244836667797

DIPOLE MOMENT
-------------
                                X             Y             Z
Electronic contribution:      2.62396      -4.57666      -0.06579
Nuclear contribution   :     -2.68277       5.02196      -0.19472
                        -----------------------------------------
Total Dipole Moment    :     -0.05880       0.44531      -0.26051
                        -----------------------------------------
Magnitude (a.u.)       :      0.51925
Magnitude (Debye)      :      1.31983

                             ****ORCA TERMINATED NORMALLY****
TOTAL RUN TIME: 0 days 0 hours 0 minutes 6 seconds 219 msec
