                         Program Version 3.0.3 - RELEASE   -
|  1> ! RI PBE def2-SVP def2-SVP/J NBO PAL2
|  2> % maxcore 2000
|  3> % output
|  4>     # printlevel mini
|  5>     print[ P_Basis ] 0
|  6>     print[ P_SCFInfo ] 1
|  7>     print[ P_SCFIterInfo ] 1
|  8>     print[ P_OrbEn ] 0
|  9>     print[ P_Cartesian ] 0
| 10> end
| 11> *xyz 0 1
| 12>  C        2.1070950000     1.4634940000     0.7282100000
| 13>  N        2.3504940000     0.0439530000     0.4915720000
| 14>  N        2.8530890000    -0.5824180000     1.6320220000
| 15>  C        1.9646310000    -1.2038120000     2.5002380000
| 16>  C        0.6507020000    -1.2860620000     2.3309680000
| 17>  C        4.2039060000    -0.6449150000     1.8043270000
| 18>  O        5.0029790000    -0.1683810000     1.0319540000
| 19>  H        1.7612500000     1.9031610000    -0.2084510000
| 20>  H        2.9974910000     2.0030000000     1.0700870000
| 21>  H        1.3137340000     1.5742970000     1.4688430000
| 22>  H        3.0795400000    -0.0563630000    -0.2082470000
| 23>  H        2.4554290000    -1.6199330000     3.3737300000
| 24>  H        0.1658720000    -0.8769810000     1.4551640000
| 25>  H        0.0495130000    -1.7883890000     3.0753970000
| 26>  H        4.4885740000    -1.2019490000     2.7130040000
| 27> *
| 28>
| 29>                          ****END OF INPUT****
 Total Charge           Charge          ....    0
 Multiplicity           Mult            ....    1
 Number of Electrons    NEL             ....   54
 Basis Dimension        Dim             ....  138

MULLIKEN ATOMIC CHARGES
-----------------------
   0 C :    0.055216
   1 N :   -0.123198
   2 N :   -0.140643
   3 C :    0.052547
   4 C :   -0.054742
   5 C :    0.151753
   6 O :   -0.224572
   7 H :    0.036508
   8 H :    0.031205
   9 H :    0.039309
  10 H :    0.108904
  11 H :    0.008617
  12 H :    0.037042
  13 H :    0.028850
  14 H :   -0.006797
Sum of atomic charges:   -0.0000000

LOEWDIN ATOMIC CHARGES
----------------------
   0 C :   -0.005942
   1 N :   -0.021434
   2 N :    0.049772
   3 C :    0.001181
   4 C :   -0.103370
   5 C :    0.045482
   6 O :   -0.172556
   7 H :    0.031339
   8 H :    0.012902
   9 H :    0.026073
  10 H :    0.054492
  11 H :    0.028353
  12 H :    0.028610
  13 H :    0.031580
  14 H :   -0.006483

  Mayer bond orders larger than 0.1
B(  0-C ,  1-N ) :   1.0247 B(  0-C ,  7-H ) :   0.9707 B(  0-C ,  8-H ) :   0.9606
B(  0-C ,  9-H ) :   0.9706 B(  1-N ,  2-N ) :   1.0248 B(  1-N , 10-H ) :   0.9364
B(  2-N ,  3-C ) :   1.0630 B(  2-N ,  5-C ) :   1.1284 B(  3-C ,  4-C ) :   1.9160
B(  3-C , 11-H ) :   0.9471 B(  4-C , 12-H ) :   0.9339 B(  4-C , 13-H ) :   0.9347
B(  5-C ,  6-O ) :   2.0083 B(  5-C , 14-H ) :   0.9208

FINAL SINGLE POINT ENERGY      -341.256332971227

DIPOLE MOMENT
-------------
                                X             Y             Z
Electronic contribution:      4.83351      -2.14923      -0.50151
Nuclear contribution   :     -5.39944       2.22004       0.88055
                        -----------------------------------------
Total Dipole Moment    :     -0.56593       0.07081       0.37904
                        -----------------------------------------
Magnitude (a.u.)       :      0.68481
Magnitude (Debye)      :      1.74064

                             ****ORCA TERMINATED NORMALLY****
TOTAL RUN TIME: 0 days 0 hours 0 minutes 6 seconds 788 msec
