                         Program Version 3.0.3 - RELEASE   -
|  1> ! RI PBE def2-SVP def2-SVP/J NBO PAL2
|  2> % maxcore 2000
|  3> % output
|  4>     # printlevel mini
|  5>     print[ P_Basis ] 0
|  6>     print[ P_SCFInfo ] 1
|  7>     print[ P_SCFIterInfo ] 1
|  8>     print[ P_OrbEn ] 0
|  9>     print[ P_Cartesian ] 0
| 10> end
| 11> *xyz 0 1
| 12>  C        2.7052920000     0.6227560000     1.1285170000
| 13>  N        2.7759750000    -0.1440220000    -0.1085310000
| 14>  N        3.1427300000    -1.4740400000     0.1392830000
| 15>  C        2.0422710000    -2.4019320000     0.1312800000
| 16>  C        4.4614630000    -1.7937010000     0.0327090000
| 17>  C        4.8400710000    -3.2476180000     0.1630300000
| 18>  O        5.2989140000    -0.9291240000    -0.1714920000
| 19>  H        2.4773150000     1.6590180000     0.8717970000
| 20>  H        3.6355420000     0.5934450000     1.7077470000
| 21>  H        1.8881850000     0.2466250000     1.7481640000
| 22>  H        3.5312500000     0.2343190000    -0.6742640000
| 23>  H        1.2674950000    -2.0559140000     0.8187450000
| 24>  H        2.3712640000    -3.3845900000     0.4616430000
| 25>  H        1.5996850000    -2.4842460000    -0.8669300000
| 26>  H        4.5120140000    -3.6685840000     1.1157740000
| 27>  H        5.9237790000    -3.3094410000     0.0987130000
| 28>  H        4.4018530000    -3.8470620000    -0.6384850000
| 29> *
| 30>
| 31>                          ****END OF INPUT****
 Total Charge           Charge          ....    0
 Multiplicity           Mult            ....    1
 Number of Electrons    NEL             ....   56
 Basis Dimension        Dim             ....  148

MULLIKEN ATOMIC CHARGES
-----------------------
   0 C :    0.063130
   1 N :   -0.137804
   2 N :   -0.220857
   3 C :    0.123597
   4 C :    0.029755
   5 C :   -0.024065
   6 O :   -0.239721
   7 H :    0.029218
   8 H :    0.025420
   9 H :    0.022832
  10 H :    0.101575
  11 H :    0.030268
  12 H :    0.026855
  13 H :    0.031187
  14 H :    0.046208
  15 H :    0.043239
  16 H :    0.049164
Sum of atomic charges:    0.0000000

LOEWDIN ATOMIC CHARGES
----------------------
   0 C :   -0.009818
   1 N :   -0.035295
   2 N :    0.006337
   3 C :    0.015412
   4 C :    0.012996
   5 C :   -0.090715
   6 O :   -0.206237
   7 H :    0.027725
   8 H :    0.010499
   9 H :    0.018628
  10 H :    0.046388
  11 H :    0.026822
  12 H :    0.027961
  13 H :    0.022958
  14 H :    0.039214
  15 H :    0.045114
  16 H :    0.042008

  Mayer bond orders larger than 0.1
B(  0-C ,  1-N ) :   1.0354 B(  0-C ,  7-H ) :   0.9684 B(  0-C ,  8-H ) :   0.9578
B(  0-C ,  9-H ) :   0.9708 B(  1-N ,  2-N ) :   1.0091 B(  1-N , 10-H ) :   0.9339
B(  2-N ,  3-C ) :   0.9966 B(  2-N ,  4-C ) :   1.1551 B(  3-C , 11-H ) :   0.9612
B(  3-C , 12-H ) :   0.9517 B(  3-C , 13-H ) :   0.9598 B(  4-C ,  5-C ) :   1.0356
B(  4-C ,  6-O ) :   2.0198 B(  5-C , 14-H ) :   0.9443 B(  5-C , 15-H ) :   0.9431
B(  5-C , 16-H ) :   0.9432

FINAL SINGLE POINT ENERGY      -342.475237532432

DIPOLE MOMENT
-------------
                                X             Y             Z
Electronic contribution:      3.35870       1.88579      -2.20932
Nuclear contribution   :     -4.15660      -2.55961       2.52521
                        -----------------------------------------
Total Dipole Moment    :     -0.79791      -0.67383       0.31589
                        -----------------------------------------
Magnitude (a.u.)       :      1.09109
Magnitude (Debye)      :      2.77334

                             ****ORCA TERMINATED NORMALLY****
TOTAL RUN TIME: 0 days 0 hours 0 minutes 7 seconds 759 msec
