                         Program Version 3.0.3 - RELEASE   -
|  1> ! RI PBE def2-SVP def2-SVP/J NBO PAL2
|  2> % maxcore 2000
|  3> % output
|  4>     # printlevel mini
|  5>     print[ P_Basis ] 0
|  6>     print[ P_SCFInfo ] 1
|  7>     print[ P_SCFIterInfo ] 1
|  8>     print[ P_OrbEn ] 0
|  9>     print[ P_Cartesian ] 0
| 10> end
| 11> *xyz 0 1
| 12>  C        2.0661780000     0.7333690000     0.9802230000
| 13>  N        3.3662200000     0.6241550000     0.3661100000
| 14>  N        3.4209350000    -0.1847590000    -0.7078280000
| 15>  C        4.5320800000    -0.7040710000    -1.0438000000
| 16>  C        4.6365780000    -1.5537530000    -2.2662210000
| 17>  O        5.5552170000    -1.0500490000    -3.2115960000
| 18>  C        5.0995800000     0.1118560000    -3.8559660000
| 19>  H        2.0960400000     1.5282590000     1.7273260000
| 20>  H        1.7310360000    -0.1944960000     1.4628460000
| 21>  H        1.3385920000     1.0045380000     0.2151160000
| 22>  H        4.1349350000     0.5174890000     1.0218130000
| 23>  H        5.4493380000    -0.5304250000    -0.4656690000
| 24>  H        3.6347980000    -1.6644450000    -2.7025120000
| 25>  H        5.0127530000    -2.5471690000    -2.0028450000
| 26>  H        5.8705610000     0.4075010000    -4.5679500000
| 27>  H        4.9277140000     0.9353270000    -3.1522700000
| 28>  H        4.1633440000    -0.0753180000    -4.3997740000
| 29> *
| 30>
| 31>                          ****END OF INPUT****
 Total Charge           Charge          ....    0
 Multiplicity           Mult            ....    1
 Number of Electrons    NEL             ....   56
 Basis Dimension        Dim             ....  148

MULLIKEN ATOMIC CHARGES
-----------------------
   0 C :    0.082242
   1 N :   -0.130676
   2 N :   -0.065490
   3 C :   -0.149586
   4 C :    0.266282
   5 O :   -0.353526
   6 C :    0.140590
   7 H :    0.027391
   8 H :    0.018649
   9 H :    0.037499
  10 H :    0.092085
  11 H :   -0.018747
  12 H :   -0.007530
  13 H :    0.011848
  14 H :    0.030436
  15 H :    0.016355
  16 H :    0.002178
Sum of atomic charges:    0.0000000

LOEWDIN ATOMIC CHARGES
----------------------
   0 C :   -0.005386
   1 N :    0.002838
   2 N :   -0.031117
   3 C :   -0.078022
   4 C :    0.046172
   5 O :   -0.153034
   6 C :    0.047096
   7 H :    0.025968
   8 H :    0.010380
   9 H :    0.031755
  10 H :    0.043091
  11 H :   -0.008081
  12 H :    0.009968
  13 H :    0.025724
  14 H :    0.021652
  15 H :    0.005405
  16 H :    0.005591

  Mayer bond orders larger than 0.1
B(  0-C ,  1-N ) :   1.0366 B(  0-C ,  7-H ) :   0.9682 B(  0-C ,  8-H ) :   0.9598
B(  0-C ,  9-H ) :   0.9655 B(  1-N ,  2-N ) :   1.0958 B(  1-N ,  3-C ) :   0.1379
B(  1-N , 10-H ) :   0.9219 B(  2-N ,  3-C ) :   1.8244 B(  3-C ,  4-C ) :   1.0475
B(  3-C , 11-H ) :   0.9254 B(  4-C ,  5-O ) :   1.0225 B(  4-C , 12-H ) :   0.9218
B(  4-C , 13-H ) :   0.9210 B(  5-O ,  6-C ) :   1.0158 B(  6-C , 14-H ) :   0.9765
B(  6-C , 15-H ) :   0.9545 B(  6-C , 16-H ) :   0.9537

FINAL SINGLE POINT ENERGY      -342.427805022347

DIPOLE MOMENT
-------------
                                X             Y             Z
Electronic contribution:      2.26619      -1.72943      -0.29540
Nuclear contribution   :     -2.46780       2.00710       1.09321
                        -----------------------------------------
Total Dipole Moment    :     -0.20161       0.27767       0.79781
                        -----------------------------------------
Magnitude (a.u.)       :      0.86847
Magnitude (Debye)      :      2.20748

                             ****ORCA TERMINATED NORMALLY****
TOTAL RUN TIME: 0 days 0 hours 0 minutes 7 seconds 113 msec
