                         Program Version 3.0.3 - RELEASE   -
|  1> ! RI PBE def2-SVP def2-SVP/J NBO PAL2
|  2> % maxcore 2000
|  3> % output
|  4>     # printlevel mini
|  5>     print[ P_Basis ] 0
|  6>     print[ P_SCFInfo ] 1
|  7>     print[ P_SCFIterInfo ] 1
|  8>     print[ P_OrbEn ] 0
|  9>     print[ P_Cartesian ] 0
| 10> end
| 11> *xyz 0 1
| 12>  C        3.6309720000     1.3251120000    -2.1929390000
| 13>  N        3.5211590000     0.5702010000    -0.9642780000
| 14>  N        4.6855790000    -0.1331340000    -0.7051740000
| 15>  C        4.8293600000    -0.6137660000     0.4595050000
| 16>  C        3.8824570000    -0.4737810000     1.6008550000
| 17>  O        5.9207090000    -1.3435890000     0.7649830000
| 18>  C        6.8607570000    -1.5257430000    -0.2767320000
| 19>  H        4.4624270000     2.0432880000    -2.1950780000
| 20>  H        2.6946850000     1.8632210000    -2.3542170000
| 21>  H        3.7767180000     0.6335170000    -3.0236840000
| 22>  H        3.2653430000     1.1788250000    -0.1927040000
| 23>  H        3.8885170000     0.5477400000     1.9959580000
| 24>  H        4.1577540000    -1.1513100000     2.4067850000
| 25>  H        2.8652580000    -0.6925760000     1.2657270000
| 26>  H        7.6627240000    -2.1272190000     0.1482810000
| 27>  H        7.2468060000    -0.5648330000    -0.6259930000
| 28>  H        6.4069770000    -2.0404430000    -1.1269150000
| 29> *
| 30>
| 31>                          ****END OF INPUT****
 Total Charge           Charge          ....    0
 Multiplicity           Mult            ....    1
 Number of Electrons    NEL             ....   56
 Basis Dimension        Dim             ....  148

MULLIKEN ATOMIC CHARGES
-----------------------
   0 C :    0.091386
   1 N :   -0.155642
   2 N :   -0.155864
   3 C :   -0.023908
   4 C :    0.011402
   5 O :   -0.267320
   6 C :    0.159804
   7 H :    0.006073
   8 H :    0.014282
   9 H :    0.025268
  10 H :    0.094698
  11 H :    0.044008
  12 H :    0.037111
  13 H :    0.048294
  14 H :    0.030566
  15 H :    0.015359
  16 H :    0.024484
Sum of atomic charges:   -0.0000000

LOEWDIN ATOMIC CHARGES
----------------------
   0 C :   -0.010053
   1 N :   -0.029409
   2 N :   -0.111354
   3 C :   -0.015080
   4 C :   -0.084755
   5 O :   -0.074671
   6 C :    0.058741
   7 H :    0.003388
   8 H :    0.021057
   9 H :    0.024601
  10 H :    0.042386
  11 H :    0.039739
  12 H :    0.042645
  13 H :    0.040842
  14 H :    0.021051
  15 H :    0.013997
  16 H :    0.016876

  Mayer bond orders larger than 0.1
B(  0-C ,  1-N ) :   1.0471 B(  0-C ,  7-H ) :   0.9554 B(  0-C ,  8-H ) :   0.9680
B(  0-C ,  9-H ) :   0.9696 B(  1-N ,  2-N ) :   1.0226 B(  1-N , 10-H ) :   0.9216
B(  2-N ,  3-C ) :   1.7521 B(  3-C ,  4-C ) :   1.0891 B(  3-C ,  5-O ) :   1.1740
B(  4-C , 11-H ) :   0.9397 B(  4-C , 12-H ) :   0.9353 B(  4-C , 13-H ) :   0.9411
B(  5-O ,  6-C ) :   0.9695 B(  6-C , 14-H ) :   0.9724 B(  6-C , 15-H ) :   0.9612
B(  6-C , 16-H ) :   0.9647

FINAL SINGLE POINT ENERGY      -342.448845563874

DIPOLE MOMENT
-------------
                                X             Y             Z
Electronic contribution:      1.09828      -2.15242       1.86990
Nuclear contribution   :     -1.17854       2.56184      -1.64780
                        -----------------------------------------
Total Dipole Moment    :     -0.08027       0.40942       0.22210
                        -----------------------------------------
Magnitude (a.u.)       :      0.47264
Magnitude (Debye)      :      1.20136

                             ****ORCA TERMINATED NORMALLY****
TOTAL RUN TIME: 0 days 0 hours 0 minutes 7 seconds 544 msec
