                         Program Version 3.0.3 - RELEASE   -
|  1> ! RI PBE def2-SVP def2-SVP/J NBO PAL2
|  2> % maxcore 2000
|  3> % output
|  4>     # printlevel mini
|  5>     print[ P_Basis ] 0
|  6>     print[ P_SCFInfo ] 1
|  7>     print[ P_SCFIterInfo ] 1
|  8>     print[ P_OrbEn ] 0
|  9>     print[ P_Cartesian ] 0
| 10> end
| 11> *xyz 0 1
| 12>  C        1.3399490000    -0.6505000000     0.8337470000
| 13>  N        2.5390760000    -0.3023310000     0.6165660000
| 14>  N        3.1753960000    -0.8560380000    -0.4245440000
| 15>  C        4.4717170000    -0.5534070000    -0.7515580000
| 16>  O        5.0129150000    -1.0748430000    -1.7002650000
| 17>  C        5.1320600000     0.4126030000     0.0996990000
| 18>  C        5.7656690000     1.2014820000     0.7434360000
| 19>  H        0.8322760000    -0.1990360000     1.6770350000
| 20>  H        0.8012170000    -1.3763980000     0.2177560000
| 21>  H        2.7176290000    -1.5350670000    -1.0263030000
| 22>  H        6.3223760000     1.9031450000     1.3197310000
| 23> *
| 24>
| 25>                          ****END OF INPUT****
 Total Charge           Charge          ....    0
 Multiplicity           Mult            ....    1
 Number of Electrons    NEL             ....   50
 Basis Dimension        Dim             ....  118

MULLIKEN ATOMIC CHARGES
-----------------------
   0 C :   -0.034244
   1 N :   -0.018109
   2 N :   -0.052489
   3 C :    0.121458
   4 O :   -0.163794
   5 C :    0.332768
   6 C :   -0.395618
   7 H :    0.059343
   8 H :    0.021903
   9 H :    0.111025
  10 H :    0.017757
Sum of atomic charges:   -0.0000000

LOEWDIN ATOMIC CHARGES
----------------------
   0 C :   -0.032574
   1 N :   -0.003352
   2 N :    0.074724
   3 C :    0.017679
   4 O :   -0.141133
   5 C :   -0.040608
   6 C :   -0.008939
   7 H :    0.027748
   8 H :   -0.000321
   9 H :    0.064744
  10 H :    0.042033

  Mayer bond orders larger than 0.1
B(  0-C ,  1-N ) :   1.8925 B(  0-C ,  7-H ) :   0.9563 B(  0-C ,  8-H ) :   0.9341
B(  1-N ,  2-N ) :   1.0756 B(  2-N ,  3-C ) :   1.1108 B(  2-N ,  9-H ) :   0.8970
B(  3-C ,  4-O ) :   2.1047 B(  3-C ,  5-C ) :   0.8752 B(  5-C ,  6-C ) :   2.3818
B(  6-C , 10-H ) :   1.0839

FINAL SINGLE POINT ENERGY      -338.803727591811

DIPOLE MOMENT
-------------
                                X             Y             Z
Electronic contribution:      3.47811       0.01430      -1.87853
Nuclear contribution   :     -4.49712       0.01338       2.46899
                        -----------------------------------------
Total Dipole Moment    :     -1.01900       0.02768       0.59046
                        -----------------------------------------
Magnitude (a.u.)       :      1.17804
Magnitude (Debye)      :      2.99434

                             ****ORCA TERMINATED NORMALLY****
TOTAL RUN TIME: 0 days 0 hours 0 minutes 5 seconds 834 msec
