                         Program Version 3.0.3 - RELEASE   -
|  1> ! RI PBE def2-SVP def2-SVP/J NBO PAL2
|  2> % maxcore 2000
|  3> % output
|  4>     # printlevel mini
|  5>     print[ P_Basis ] 0
|  6>     print[ P_SCFInfo ] 1
|  7>     print[ P_SCFIterInfo ] 1
|  8>     print[ P_OrbEn ] 0
|  9>     print[ P_Cartesian ] 0
| 10> end
| 11> *xyz 0 1
| 12>  C        1.0696590000    -0.0092630000     0.0497360000
| 13>  N        2.4996640000    -0.0047560000     0.2199620000
| 14>  N        3.1074030000    -1.1370780000     0.7458710000
| 15>  C        3.2417320000     1.0945700000    -0.1299910000
| 16>  O        2.7073570000     2.0874310000    -0.5909830000
| 17>  C        4.7106040000     1.0038640000     0.0829230000
| 18>  C        5.4777970000     2.0374100000    -0.2375640000
| 19>  H        0.7660630000    -0.8148860000    -0.6278470000
| 20>  H        0.7702840000     0.9486060000    -0.3696620000
| 21>  H        0.5686400000    -0.1582180000     1.0126040000
| 22>  H        2.9131380000    -1.9374740000     0.1523030000
| 23>  H        2.7310200000    -1.3310110000     1.6686040000
| 24>  H        5.1165730000     0.0913790000     0.4961220000
| 25>  H        5.0339520000     2.9369300000    -0.6502310000
| 26>  H        6.5518230000     2.0085060000    -0.0969480000
| 27> *
| 28>
| 29>                          ****END OF INPUT****
 Total Charge           Charge          ....    0
 Multiplicity           Mult            ....    1
 Number of Electrons    NEL             ....   54
 Basis Dimension        Dim             ....  138

MULLIKEN ATOMIC CHARGES
-----------------------
   0 C :    0.084235
   1 N :   -0.270833
   2 N :   -0.053580
   3 C :    0.134303
   4 O :   -0.219112
   5 C :   -0.079824
   6 C :    0.026055
   7 H :    0.025119
   8 H :    0.054939
   9 H :    0.023987
  10 H :    0.105393
  11 H :    0.105221
  12 H :    0.001020
  13 H :    0.037599
  14 H :    0.025478
Sum of atomic charges:   -0.0000000

LOEWDIN ATOMIC CHARGES
----------------------
   0 C :    0.002862
   1 N :   -0.005892
   2 N :   -0.011122
   3 C :    0.025064
   4 O :   -0.195028
   5 C :   -0.071851
   6 C :   -0.000851
   7 H :    0.018895
   8 H :    0.036871
   9 H :    0.018817
  10 H :    0.051733
  11 H :    0.051808
  12 H :    0.022063
  13 H :    0.029958
  14 H :    0.026672

  Mayer bond orders larger than 0.1
B(  0-C ,  1-N ) :   0.9840 B(  0-C ,  7-H ) :   0.9653 B(  0-C ,  8-H ) :   0.9421
B(  0-C ,  9-H ) :   0.9645 B(  1-N ,  2-N ) :   1.0520 B(  1-N ,  3-C ) :   1.1036
B(  2-N , 10-H ) :   0.9643 B(  2-N , 11-H ) :   0.9634 B(  3-C ,  4-O ) :   2.0466
B(  3-C ,  5-C ) :   0.9920 B(  5-C ,  6-C ) :   1.9619 B(  5-C , 12-H ) :   0.9334
B(  6-C , 13-H ) :   0.9287 B(  6-C , 14-H ) :   0.9391

FINAL SINGLE POINT ENERGY      -341.260290445706

DIPOLE MOMENT
-------------
                                X             Y             Z
Electronic contribution:      0.82762       2.09538      -0.73426
Nuclear contribution   :     -1.10947      -3.50899       1.26919
                        -----------------------------------------
Total Dipole Moment    :     -0.28185      -1.41361       0.53493
                        -----------------------------------------
Magnitude (a.u.)       :      1.53749
Magnitude (Debye)      :      3.90799

                             ****ORCA TERMINATED NORMALLY****
TOTAL RUN TIME: 0 days 0 hours 0 minutes 7 seconds 143 msec
