                         Program Version 3.0.3 - RELEASE   -
|  1> ! RI PBE def2-SVP def2-SVP/J NBO PAL2
|  2> % maxcore 2000
|  3> % output
|  4>     # printlevel mini
|  5>     print[ P_Basis ] 0
|  6>     print[ P_SCFInfo ] 1
|  7>     print[ P_SCFIterInfo ] 1
|  8>     print[ P_OrbEn ] 0
|  9>     print[ P_Cartesian ] 0
| 10> end
| 11> *xyz 0 1
| 12>  C        0.9184710000     0.1198150000     0.1106790000
| 13>  N        2.3308320000    -0.0619890000    -0.0927700000
| 14>  N        3.0168650000     1.0641500000    -0.5560790000
| 15>  C        3.0690620000    -1.1267870000     0.3044320000
| 16>  O        4.2841900000    -1.1578140000     0.2015870000
| 17>  C        2.3356960000    -2.2408700000     0.8786630000
| 18>  C        1.8157460000    -3.2118130000     1.3563440000
| 19>  H        0.4280100000     0.3585750000    -0.8368420000
| 20>  H        0.7410600000     0.9408810000     0.8096700000
| 21>  H        0.4902810000    -0.7990430000     0.5061790000
| 22>  H        3.1271630000     0.9786840000    -1.5644570000
| 23>  H        3.9571570000     0.9957710000    -0.1722520000
| 24>  H        1.3604780000    -4.0754490000     1.7822450000
| 25> *
| 26>
| 27>                          ****END OF INPUT****
 Total Charge           Charge          ....    0
 Multiplicity           Mult            ....    1
 Number of Electrons    NEL             ....   52
 Basis Dimension        Dim             ....  128

MULLIKEN ATOMIC CHARGES
-----------------------
   0 C :    0.123376
   1 N :   -0.248797
   2 N :   -0.052611
   3 C :    0.127612
   4 O :   -0.214692
   5 C :    0.339177
   6 C :   -0.425857
   7 H :    0.030780
   8 H :    0.039806
   9 H :    0.049986
  10 H :    0.112853
  11 H :    0.104148
  12 H :    0.014219
Sum of atomic charges:   -0.0000000

LOEWDIN ATOMIC CHARGES
----------------------
   0 C :    0.017876
   1 N :    0.020657
   2 N :   -0.020611
   3 C :   -0.006015
   4 O :   -0.180958
   5 C :   -0.043543
   6 C :   -0.034331
   7 H :    0.026069
   8 H :    0.028898
   9 H :    0.037579
  10 H :    0.060058
  11 H :    0.053570
  12 H :    0.040749

  Mayer bond orders larger than 0.1
B(  0-C ,  1-N ) :   0.9887 B(  0-C ,  7-H ) :   0.9626 B(  0-C ,  8-H ) :   0.9595
B(  0-C ,  9-H ) :   0.9451 B(  1-N ,  2-N ) :   1.0272 B(  1-N ,  3-C ) :   1.1746
B(  1-N ,  4-O ) :   0.1083 B(  2-N , 10-H ) :   0.9620 B(  2-N , 11-H ) :   0.9499
B(  3-C ,  4-O ) :   2.0134 B(  3-C ,  5-C ) :   0.8645 B(  5-C ,  6-C ) :   2.3236
B(  5-C , 12-H ) :  -0.1005 B(  6-C , 12-H ) :   1.0896

FINAL SINGLE POINT ENERGY      -340.010836524224

DIPOLE MOMENT
-------------
                                X             Y             Z
Electronic contribution:      3.83817      -3.17170       0.80994
Nuclear contribution   :     -4.91807       3.31056      -1.03574
                        -----------------------------------------
Total Dipole Moment    :     -1.07991       0.13886      -0.22579
                        -----------------------------------------
Magnitude (a.u.)       :      1.11196
Magnitude (Debye)      :      2.82639

                             ****ORCA TERMINATED NORMALLY****
TOTAL RUN TIME: 0 days 0 hours 0 minutes 6 seconds 56 msec
