                         Program Version 3.0.3 - RELEASE   -
|  1> ! RI PBE def2-SVP def2-SVP/J NBO PAL2
|  2> % maxcore 2000
|  3> % output
|  4>     # printlevel mini
|  5>     print[ P_Basis ] 0
|  6>     print[ P_SCFInfo ] 1
|  7>     print[ P_SCFIterInfo ] 1
|  8>     print[ P_OrbEn ] 0
|  9>     print[ P_Cartesian ] 0
| 10> end
| 11> *xyz 0 1
| 12>  C        4.8259430000    -2.3327070000     0.6640090000
| 13>  N        4.4272570000    -1.5530300000    -0.4645150000
| 14>  N        5.0286230000    -0.3761470000    -0.6773760000
| 15>  C        4.7029110000     0.3409620000    -1.6612690000
| 16>  O        5.2730980000     1.5443760000    -1.9349050000
| 17>  C        6.2521390000     2.0170360000    -1.1152100000
| 18>  C        6.8256350000     3.1863330000    -1.3526620000
| 19>  H        4.2318430000    -3.2476140000     0.6744700000
| 20>  H        4.6541350000    -1.8058840000     1.6099980000
| 21>  H        5.8839650000    -2.6158780000     0.6157190000
| 22>  H        3.7071160000    -1.8763760000    -1.0890070000
| 23>  H        3.9426850000     0.1015520000    -2.4045660000
| 24>  H        6.5075740000     1.3721340000    -0.2838600000
| 25>  H        6.5394430000     3.8009200000    -2.1969000000
| 26>  H        7.6009250000     3.5411230000    -0.6886480000
| 27> *
| 28>
| 29>                          ****END OF INPUT****
 Total Charge           Charge          ....    0
 Multiplicity           Mult            ....    1
 Number of Electrons    NEL             ....   54
 Basis Dimension        Dim             ....  138

MULLIKEN ATOMIC CHARGES
-----------------------
   0 C :    0.115592
   1 N :   -0.167632
   2 N :   -0.089781
   3 C :    0.110526
   4 O :   -0.212042
   5 C :    0.087193
   6 C :   -0.063896
   7 H :    0.014336
   8 H :    0.022907
   9 H :    0.023902
  10 H :    0.094868
  11 H :   -0.012956
  12 H :    0.020731
  13 H :    0.027432
  14 H :    0.028821
Sum of atomic charges:   -0.0000000

LOEWDIN ATOMIC CHARGES
----------------------
   0 C :    0.001967
   1 N :   -0.003197
   2 N :   -0.071179
   3 C :   -0.006678
   4 O :   -0.028179
   5 C :    0.043166
   6 C :   -0.111218
   7 H :    0.027576
   8 H :    0.016824
   9 H :    0.017412
  10 H :    0.044964
  11 H :   -0.006319
  12 H :    0.015370
  13 H :    0.027671
  14 H :    0.031820

  Mayer bond orders larger than 0.1
B(  0-C ,  1-N ) :   1.0462 B(  0-C ,  7-H ) :   0.9644 B(  0-C ,  8-H ) :   0.9622
B(  0-C ,  9-H ) :   0.9619 B(  1-N ,  2-N ) :   1.0728 B(  1-N ,  3-C ) :   0.1419
B(  1-N , 10-H ) :   0.9390 B(  2-N ,  3-C ) :   1.7496 B(  3-C ,  4-O ) :   1.0828
B(  3-C , 11-H ) :   0.9543 B(  4-O ,  5-C ) :   1.0667 B(  5-C ,  6-C ) :   1.9209
B(  5-C , 12-H ) :   0.9509 B(  6-C , 13-H ) :   0.9467 B(  6-C , 14-H ) :   0.9434

FINAL SINGLE POINT ENERGY      -341.220334157144

DIPOLE MOMENT
-------------
                                X             Y             Z
Electronic contribution:     -1.02740       2.48300      -3.29318
Nuclear contribution   :      0.53607      -3.34494       3.38263
                        -----------------------------------------
Total Dipole Moment    :     -0.49133      -0.86194       0.08944
                        -----------------------------------------
Magnitude (a.u.)       :      0.99617
Magnitude (Debye)      :      2.53205

                             ****ORCA TERMINATED NORMALLY****
TOTAL RUN TIME: 0 days 0 hours 0 minutes 6 seconds 872 msec
