                         Program Version 3.0.3 - RELEASE   -
|  1> ! RI PBE def2-SVP def2-SVP/J NBO PAL2
|  2> % maxcore 2000
|  3> % output
|  4>     # printlevel mini
|  5>     print[ P_Basis ] 0
|  6>     print[ P_SCFInfo ] 1
|  7>     print[ P_SCFIterInfo ] 1
|  8>     print[ P_OrbEn ] 0
|  9>     print[ P_Cartesian ] 0
| 10> end
| 11> *xyz 0 1
| 12>  C        2.0018080000     0.4331560000    -1.2847560000
| 13>  N        2.4739060000     0.0188030000     0.0309180000
| 14>  N        3.1446120000     1.0477590000     0.6835380000
| 15>  C        4.4981740000     1.1636290000     0.5953110000
| 16>  O        5.1561550000     0.4674220000    -0.1562470000
| 17>  C        5.0763720000     2.1999560000     1.4872840000
| 18>  C        6.3839810000     2.4130230000     1.5168940000
| 19>  H        1.5626600000    -0.4381530000    -1.7742170000
| 20>  H        2.7973420000     0.8382120000    -1.9203700000
| 21>  H        1.2198680000     1.1857420000    -1.1691840000
| 22>  H        3.1575200000    -0.7238380000    -0.0869640000
| 23>  H        2.6618710000     1.4460420000     1.4722570000
| 24>  H        4.3982320000     2.7818130000     2.1056230000
| 25>  H        7.0389060000     1.8209190000     0.8869670000
| 26>  H        6.8246830000     3.1684050000     2.1559470000
| 27> *
| 28>
| 29>                          ****END OF INPUT****
 Total Charge           Charge          ....    0
 Multiplicity           Mult            ....    1
 Number of Electrons    NEL             ....   54
 Basis Dimension        Dim             ....  138

MULLIKEN ATOMIC CHARGES
-----------------------
   0 C :    0.064084
   1 N :   -0.150769
   2 N :   -0.093265
   3 C :    0.080721
   4 O :   -0.219360
   5 C :   -0.082397
   6 C :    0.020063
   7 H :    0.029226
   8 H :    0.029467
   9 H :    0.024845
  10 H :    0.107379
  11 H :    0.121944
  12 H :   -0.007755
  13 H :    0.045405
  14 H :    0.030412
Sum of atomic charges:   -0.0000000

LOEWDIN ATOMIC CHARGES
----------------------
   0 C :   -0.009948
   1 N :   -0.042456
   2 N :    0.047054
   3 C :    0.007647
   4 O :   -0.199135
   5 C :   -0.076434
   6 C :    0.003825
   7 H :    0.027606
   8 H :    0.012380
   9 H :    0.020367
  10 H :    0.050386
  11 H :    0.070047
  12 H :    0.023641
  13 H :    0.035267
  14 H :    0.029751

  Mayer bond orders larger than 0.1
B(  0-C ,  1-N ) :   1.0313 B(  0-C ,  7-H ) :   0.9694 B(  0-C ,  8-H ) :   0.9594
B(  0-C ,  9-H ) :   0.9736 B(  1-N ,  2-N ) :   1.0350 B(  1-N , 10-H ) :   0.9415
B(  2-N ,  3-C ) :   1.1708 B(  2-N , 11-H ) :   0.9284 B(  3-C ,  4-O ) :   2.0521
B(  3-C ,  5-C ) :   0.9531 B(  5-C ,  6-C ) :   1.9774 B(  5-C , 12-H ) :   0.9426
B(  6-C , 13-H ) :   0.9327 B(  6-C , 14-H ) :   0.9382

FINAL SINGLE POINT ENERGY      -341.260293331448

DIPOLE MOMENT
-------------
                                X             Y             Z
Electronic contribution:      2.10684      -0.86108       1.71902
Nuclear contribution   :     -2.66632       1.40789      -1.21424
                        -----------------------------------------
Total Dipole Moment    :     -0.55948       0.54680       0.50477
                        -----------------------------------------
Magnitude (a.u.)       :      0.93103
Magnitude (Debye)      :      2.36648

                             ****ORCA TERMINATED NORMALLY****
TOTAL RUN TIME: 0 days 0 hours 0 minutes 6 seconds 820 msec
