                         Program Version 3.0.3 - RELEASE   -
|  1> ! RI PBE def2-SVP def2-SVP/J NBO PAL2
|  2> % maxcore 2000
|  3> % output
|  4>     # printlevel mini
|  5>     print[ P_Basis ] 0
|  6>     print[ P_SCFInfo ] 1
|  7>     print[ P_SCFIterInfo ] 1
|  8>     print[ P_OrbEn ] 0
|  9>     print[ P_Cartesian ] 0
| 10> end
| 11> *xyz 0 1
| 12>  C        2.1905750000     0.1925250000    -1.2057560000
| 13>  N        2.4027710000     0.0225600000     0.2268820000
| 14>  N        3.0125970000     1.1314100000     0.7984370000
| 15>  C        4.3639670000     1.2440850000     0.8472820000
| 16>  O        5.1224300000     0.4572450000     0.3184230000
| 17>  C        4.8200830000     2.3982230000     1.6055700000
| 18>  C        5.2222880000     3.3445160000     2.2244000000
| 19>  H        1.7783100000    -0.7397890000    -1.5955880000
| 20>  H        3.1079270000     0.4352100000    -1.7532060000
| 21>  H        1.4556740000     0.9822070000    -1.3702480000
| 22>  H        3.0293170000    -0.7615250000     0.3804590000
| 23>  H        2.4428080000     1.6972980000     1.4061540000
| 24>  H        5.5931620000     4.1805260000     2.7706020000
| 25> *
| 26>
| 27>                          ****END OF INPUT****
 Total Charge           Charge          ....    0
 Multiplicity           Mult            ....    1
 Number of Electrons    NEL             ....   52
 Basis Dimension        Dim             ....  128

MULLIKEN ATOMIC CHARGES
-----------------------
   0 C :    0.066836
   1 N :   -0.150257
   2 N :   -0.084856
   3 C :    0.068733
   4 O :   -0.192827
   5 C :    0.362084
   6 C :   -0.417763
   7 H :    0.030212
   8 H :    0.031615
   9 H :    0.026598
  10 H :    0.111077
  11 H :    0.129963
  12 H :    0.018586
Sum of atomic charges:    0.0000000

LOEWDIN ATOMIC CHARGES
----------------------
   0 C :   -0.007497
   1 N :   -0.039782
   2 N :    0.056563
   3 C :   -0.003245
   4 O :   -0.169092
   5 C :   -0.045457
   6 C :   -0.027223
   7 H :    0.028600
   8 H :    0.013192
   9 H :    0.021629
  10 H :    0.053545
  11 H :    0.076925
  12 H :    0.041843

  Mayer bond orders larger than 0.1
B(  0-C ,  1-N ) :   1.0292 B(  0-C ,  7-H ) :   0.9700 B(  0-C ,  8-H ) :   0.9599
B(  0-C ,  9-H ) :   0.9734 B(  1-N ,  2-N ) :   1.0306 B(  1-N , 10-H ) :   0.9447
B(  2-N ,  3-C ) :   1.2032 B(  2-N ,  4-O ) :   0.1039 B(  2-N , 11-H ) :   0.9301
B(  3-C ,  4-O ) :   2.0616 B(  3-C ,  5-C ) :   0.8424 B(  5-C ,  6-C ) :   2.3677
B(  6-C , 12-H ) :   1.0855

FINAL SINGLE POINT ENERGY      -340.008864000180

DIPOLE MOMENT
-------------
                                X             Y             Z
Electronic contribution:      4.36861       1.76818       3.94582
Nuclear contribution   :     -5.16138      -1.21160      -3.65693
                        -----------------------------------------
Total Dipole Moment    :     -0.79276       0.55658       0.28888
                        -----------------------------------------
Magnitude (a.u.)       :      1.01080
Magnitude (Debye)      :      2.56924

                             ****ORCA TERMINATED NORMALLY****
TOTAL RUN TIME: 0 days 0 hours 0 minutes 6 seconds 152 msec
