                         Program Version 3.0.3 - RELEASE   -
|  1> ! RI PBE def2-SVP def2-SVP/J NBO PAL2
|  2> % maxcore 2000
|  3> % output
|  4>     # printlevel mini
|  5>     print[ P_Basis ] 0
|  6>     print[ P_SCFInfo ] 1
|  7>     print[ P_SCFIterInfo ] 1
|  8>     print[ P_OrbEn ] 0
|  9>     print[ P_Cartesian ] 0
| 10> end
| 11> *xyz 0 1
| 12>  C        1.4366200000    -1.1468050000     1.8413210000
| 13>  N        2.6999750000    -1.1089180000     1.7997700000
| 14>  O        3.1647810000     0.0314950000     1.1951920000
| 15>  C        4.5745690000     0.0700460000     1.2470210000
| 16>  C        5.1931290000     1.2115680000     0.4444720000
| 17>  C        6.2389610000     1.3503420000     1.5708220000
| 18>  C        5.2598160000     0.6142590000     2.5082680000
| 19>  H        0.9930390000    -2.0244090000     2.2954360000
| 20>  H        0.8094500000    -0.3493970000     1.4449390000
| 21>  H        4.9709880000    -0.9079780000     0.9606350000
| 22>  H        4.5139600000     2.0669220000     0.4331840000
| 23>  H        5.5290940000     1.0043770000    -0.5718370000
| 24>  H        6.5469320000     2.3575900000     1.8501120000
| 25>  H        7.1316800000     0.7556310000     1.3685830000
| 26>  H        4.5967390000     1.3170340000     3.0177380000
| 27>  H        5.6545760000    -0.1009660000     3.2298550000
| 28> *
| 29>
| 30>                          ****END OF INPUT****
 Total Charge           Charge          ....    0
 Multiplicity           Mult            ....    1
 Number of Electrons    NEL             ....   54
 Basis Dimension        Dim             ....  143

MULLIKEN ATOMIC CHARGES
-----------------------
   0 C :   -0.024176
   1 N :   -0.010505
   2 O :   -0.250783
   3 C :    0.058316
   4 C :    0.029904
   5 C :   -0.037697
   6 C :    0.036079
   7 H :    0.052713
   8 H :    0.032165
   9 H :    0.003039
  10 H :    0.021055
  11 H :    0.019650
  12 H :    0.013340
  13 H :    0.022668
  14 H :    0.010922
  15 H :    0.023310
Sum of atomic charges:   -0.0000000

LOEWDIN ATOMIC CHARGES
----------------------
   0 C :   -0.049765
   1 N :    0.011233
   2 O :   -0.074363
   3 C :    0.038594
   4 C :   -0.037530
   5 C :   -0.030970
   6 C :   -0.045056
   7 H :    0.026670
   8 H :    0.006029
   9 H :    0.012625
  10 H :    0.030359
  11 H :    0.019119
  12 H :    0.019255
  13 H :    0.025037
  14 H :    0.028678
  15 H :    0.020084

  Mayer bond orders larger than 0.1
B(  0-C ,  1-N ) :   1.9415 B(  0-C ,  2-O ) :   0.1208 B(  0-C ,  7-H ) :   0.9522
B(  0-C ,  8-H ) :   0.9313 B(  1-N ,  2-O ) :   0.9659 B(  2-O ,  3-C ) :   0.9984
B(  3-C ,  4-C ) :   1.0736 B(  3-C ,  6-C ) :   1.0887 B(  3-C ,  9-H ) :   0.9204
B(  4-C ,  5-C ) :   1.0948 B(  4-C , 10-H ) :   0.9151 B(  4-C , 11-H ) :   0.9357
B(  5-C ,  6-C ) :   1.1151 B(  5-C , 12-H ) :   0.9327 B(  5-C , 13-H ) :   0.9434
B(  6-C , 14-H ) :   0.9032 B(  6-C , 15-H ) :   0.9367

FINAL SINGLE POINT ENERGY      -325.181791442594

DIPOLE MOMENT
-------------
                                X             Y             Z
Electronic contribution:     -3.92375      -2.48488      -0.39660
Nuclear contribution   :      3.94862       2.63427       0.39072
                        -----------------------------------------
Total Dipole Moment    :      0.02488       0.14939      -0.00588
                        -----------------------------------------
Magnitude (a.u.)       :      0.15156
Magnitude (Debye)      :      0.38524

                             ****ORCA TERMINATED NORMALLY****
TOTAL RUN TIME: 0 days 0 hours 0 minutes 7 seconds 250 msec
