                         Program Version 3.0.3 - RELEASE   -
|  1> ! RI PBE def2-SVP def2-SVP/J NBO PAL2
|  2> % maxcore 2000
|  3> % output
|  4>     # printlevel mini
|  5>     print[ P_Basis ] 0
|  6>     print[ P_SCFInfo ] 1
|  7>     print[ P_SCFIterInfo ] 1
|  8>     print[ P_OrbEn ] 0
|  9>     print[ P_Cartesian ] 0
| 10> end
| 11> *xyz 0 1
| 12>  C        1.2977780000    -0.5546380000    -1.4097110000
| 13>  N        2.5361710000    -0.5021150000    -1.6587220000
| 14>  O        3.2526540000     0.0191800000    -0.6079200000
| 15>  C        4.6280690000    -0.0158900000    -0.8981140000
| 16>  C        5.4889830000     0.6871520000     0.1490490000
| 17>  N        6.4581500000    -0.4155440000     0.0240310000
| 18>  C        5.4184530000    -1.2866060000    -0.5531470000
| 19>  H        0.6628010000    -0.9448830000    -2.1956010000
| 20>  H        0.8718510000    -0.2269190000    -0.4624700000
| 21>  H        4.8007770000     0.3306260000    -1.9179010000
| 22>  H        4.9594100000     0.7213480000     1.1099460000
| 23>  H        5.8784260000     1.6797790000    -0.0878770000
| 24>  H        6.8651280000    -0.7369430000     0.8921100000
| 25>  H        4.8660560000    -1.8863660000     0.1816210000
| 26>  H        5.7526830000    -1.9258720000    -1.3730950000
| 27> *
| 28>
| 29>                          ****END OF INPUT****
 Total Charge           Charge          ....    0
 Multiplicity           Mult            ....    1
 Number of Electrons    NEL             ....   54
 Basis Dimension        Dim             ....  138

MULLIKEN ATOMIC CHARGES
-----------------------
   0 C :   -0.023727
   1 N :   -0.007703
   2 O :   -0.250046
   3 C :    0.008657
   4 C :    0.161978
   5 N :   -0.292578
   6 C :    0.160698
   7 H :    0.057420
   8 H :    0.032626
   9 H :    0.014133
  10 H :    0.004978
  11 H :    0.017007
  12 H :    0.099095
  13 H :   -0.003691
  14 H :    0.021153
Sum of atomic charges:   -0.0000000

LOEWDIN ATOMIC CHARGES
----------------------
   0 C :   -0.046718
   1 N :    0.013255
   2 O :   -0.070883
   3 C :    0.035560
   4 C :    0.024299
   5 N :   -0.114815
   6 C :    0.015643
   7 H :    0.028515
   8 H :    0.006719
   9 H :    0.015438
  10 H :    0.009402
  11 H :    0.013506
  12 H :    0.048251
  13 H :    0.007783
  14 H :    0.014046

  Mayer bond orders larger than 0.1
B(  0-C ,  1-N ) :   1.9452 B(  0-C ,  2-O ) :   0.1177 B(  0-C ,  7-H ) :   0.9515
B(  0-C ,  8-H ) :   0.9317 B(  1-N ,  2-O ) :   0.9626 B(  2-O ,  3-C ) :   0.9980
B(  3-C ,  4-C ) :   1.0572 B(  3-C ,  6-C ) :   1.0666 B(  3-C ,  9-H ) :   0.9073
B(  4-C ,  5-N ) :   1.0348 B(  4-C , 10-H ) :   0.9147 B(  4-C , 11-H ) :   0.9372
B(  5-N ,  6-C ) :   1.0427 B(  5-N , 12-H ) :   0.9424 B(  6-C , 13-H ) :   0.9079
B(  6-C , 14-H ) :   0.9382

FINAL SINGLE POINT ENERGY      -341.187887866831

DIPOLE MOMENT
-------------
                                X             Y             Z
Electronic contribution:     -1.68791       0.47974      -1.12444
Nuclear contribution   :      1.38472      -0.58170       1.56326
                        -----------------------------------------
Total Dipole Moment    :     -0.30319      -0.10196       0.43881
                        -----------------------------------------
Magnitude (a.u.)       :      0.54303
Magnitude (Debye)      :      1.38026

                             ****ORCA TERMINATED NORMALLY****
TOTAL RUN TIME: 0 days 0 hours 0 minutes 6 seconds 856 msec
