                         Program Version 3.0.3 - RELEASE   -
|  1> ! RI PBE def2-SVP def2-SVP/J NBO PAL2
|  2> % maxcore 2000
|  3> % output
|  4>     # printlevel mini
|  5>     print[ P_Basis ] 0
|  6>     print[ P_SCFInfo ] 1
|  7>     print[ P_SCFIterInfo ] 1
|  8>     print[ P_OrbEn ] 0
|  9>     print[ P_Cartesian ] 0
| 10> end
| 11> *xyz 0 1
| 12>  C        1.1941660000    -1.3934820000     1.3522230000
| 13>  N        2.4410810000    -1.2913610000     1.5324500000
| 14>  O        3.1085040000    -0.9990920000     0.3649040000
| 15>  C        4.4792430000    -0.8288760000     0.6320250000
| 16>  C        5.2830180000    -0.5258960000    -0.6262000000
| 17>  O        5.8172680000     0.6696090000    -0.0421110000
| 18>  C        4.9435010000     0.5548360000     1.0920130000
| 19>  H        0.5979220000    -1.6320520000     2.2244170000
| 20>  H        0.7251880000    -1.2547390000     0.3792340000
| 21>  H        4.8432510000    -1.6587560000     1.2391640000
| 22>  H        4.6500710000    -0.3164740000    -1.4955390000
| 23>  H        6.0646920000    -1.2390720000    -0.8998150000
| 24>  H        4.1443950000     1.3039500000     1.0773720000
| 25>  H        5.4885800000     0.6082050000     2.0377520000
| 26> *
| 27>
| 28>                          ****END OF INPUT****
 Total Charge           Charge          ....    0
 Multiplicity           Mult            ....    1
 Number of Electrons    NEL             ....   54
 Basis Dimension        Dim             ....  133

MULLIKEN ATOMIC CHARGES
-----------------------
   0 C :   -0.019681
   1 N :   -0.011457
   2 O :   -0.251941
   3 C :   -0.020021
   4 C :    0.235601
   5 O :   -0.366270
   6 C :    0.253200
   7 H :    0.059493
   8 H :    0.037829
   9 H :    0.018370
  10 H :    0.017097
  11 H :    0.022758
  12 H :    0.006020
  13 H :    0.019002
Sum of atomic charges:   -0.0000000

LOEWDIN ATOMIC CHARGES
----------------------
   0 C :   -0.041007
   1 N :    0.010986
   2 O :   -0.071915
   3 C :    0.019753
   4 C :    0.080517
   5 O :   -0.184702
   6 C :    0.074357
   7 H :    0.029757
   8 H :    0.008921
   9 H :    0.014922
  10 H :    0.014694
  11 H :    0.015508
  12 H :    0.013414
  13 H :    0.014796

  Mayer bond orders larger than 0.1
B(  0-C ,  1-N ) :   1.9452 B(  0-C ,  2-O ) :   0.1153 B(  0-C ,  7-H ) :   0.9516
B(  0-C ,  8-H ) :   0.9324 B(  1-N ,  2-O ) :   0.9582 B(  2-O ,  3-C ) :   0.9895
B(  3-C ,  4-C ) :   1.0799 B(  3-C ,  6-C ) :   1.0952 B(  3-C ,  9-H ) :   0.9159
B(  4-C ,  5-O ) :   1.0443 B(  4-C , 10-H ) :   0.9134 B(  4-C , 11-H ) :   0.9367
B(  5-O ,  6-C ) :   1.0395 B(  6-C , 12-H ) :   0.9075 B(  6-C , 13-H ) :   0.9337

FINAL SINGLE POINT ENERGY      -361.026013890804

DIPOLE MOMENT
-------------
                                X             Y             Z
Electronic contribution:      0.22655       0.00509      -0.21823
Nuclear contribution   :     -0.75393      -0.42042       0.33278
                        -----------------------------------------
Total Dipole Moment    :     -0.52738      -0.41533       0.11455
                        -----------------------------------------
Magnitude (a.u.)       :      0.68099
Magnitude (Debye)      :      1.73094

                             ****ORCA TERMINATED NORMALLY****
TOTAL RUN TIME: 0 days 0 hours 0 minutes 6 seconds 293 msec
