                         Program Version 3.0.3 - RELEASE   -
|  1> ! RI PBE def2-SVP def2-SVP/J NBO PAL2
|  2> % maxcore 2000
|  3> % output
|  4>     # printlevel mini
|  5>     print[ P_Basis ] 0
|  6>     print[ P_SCFInfo ] 1
|  7>     print[ P_SCFIterInfo ] 1
|  8>     print[ P_OrbEn ] 0
|  9>     print[ P_Cartesian ] 0
| 10> end
| 11> *xyz 0 1
| 12>  C        2.7546760000     0.9555910000     0.0359460000
| 13>  N        3.4583310000    -0.0951190000     0.0112600000
| 14>  O        3.8471650000    -0.4877100000     1.2644700000
| 15>  C        4.6462980000    -1.6622270000     1.1733730000
| 16>  C        4.9659540000    -2.1168220000     2.5570580000
| 17>  C        6.2316220000    -2.8863670000     2.7856630000
| 18>  C        6.1031040000    -1.4869210000     3.3001880000
| 19>  H        2.4065710000     1.3282980000    -0.9195890000
| 20>  H        2.5005750000     1.4731250000     0.9600920000
| 21>  H        5.5659060000    -1.4359650000     0.6203740000
| 22>  H        4.0930110000    -2.4267370000     0.6176920000
| 23>  H        4.1055440000    -2.4136050000     3.1474790000
| 24>  H        6.8798260000    -3.0569830000     1.9341710000
| 25>  H        6.2069650000    -3.7018410000     3.4970680000
| 26>  H        6.6582750000    -0.7069900000     2.7929190000
| 27>  H        5.9950480000    -1.3396360000     4.3671370000
| 28> *
| 29>
| 30>                          ****END OF INPUT****
 Total Charge           Charge          ....    0
 Multiplicity           Mult            ....    1
 Number of Electrons    NEL             ....   54
 Basis Dimension        Dim             ....  143

MULLIKEN ATOMIC CHARGES
-----------------------
   0 C :   -0.022668
   1 N :   -0.013412
   2 O :   -0.286140
   3 C :    0.297170
   4 C :   -0.171407
   5 C :   -0.049894
   6 C :   -0.025552
   7 H :    0.050885
   8 H :    0.031243
   9 H :   -0.007755
  10 H :    0.011256
  11 H :    0.029854
  12 H :    0.037927
  13 H :    0.041032
  14 H :    0.036714
  15 H :    0.040747
Sum of atomic charges:   -0.0000000

LOEWDIN ATOMIC CHARGES
----------------------
   0 C :   -0.050152
   1 N :    0.007994
   2 O :   -0.085905
   3 C :    0.062503
   4 C :   -0.055581
   5 C :   -0.041333
   6 C :   -0.040533
   7 H :    0.026170
   8 H :    0.005668
   9 H :    0.011372
  10 H :    0.014561
  11 H :    0.029750
  12 H :    0.026782
  13 H :    0.029966
  14 H :    0.028478
  15 H :    0.030259

  Mayer bond orders larger than 0.1
B(  0-C ,  1-N ) :   1.9375 B(  0-C ,  2-O ) :   0.1241 B(  0-C ,  7-H ) :   0.9526
B(  0-C ,  8-H ) :   0.9321 B(  1-N ,  2-O ) :   0.9759 B(  2-O ,  3-C ) :   0.9405
B(  3-C ,  4-C ) :   1.0808 B(  3-C ,  9-H ) :   0.9235 B(  3-C , 10-H ) :   0.9337
B(  4-C ,  5-C ) :   0.9815 B(  4-C ,  6-C ) :   0.9880 B(  4-C , 11-H ) :   0.9414
B(  5-C ,  6-C ) :   1.0492 B(  5-C , 12-H ) :   0.9506 B(  5-C , 13-H ) :   0.9463
B(  6-C , 14-H ) :   0.9495 B(  6-C , 15-H ) :   0.9479

FINAL SINGLE POINT ENERGY      -325.173819945300

DIPOLE MOMENT
-------------
                                X             Y             Z
Electronic contribution:     -3.13926       2.26119      -2.46514
Nuclear contribution   :      3.19757      -2.31185       2.67544
                        -----------------------------------------
Total Dipole Moment    :      0.05831      -0.05067       0.21030
                        -----------------------------------------
Magnitude (a.u.)       :      0.22404
Magnitude (Debye)      :      0.56946

                             ****ORCA TERMINATED NORMALLY****
TOTAL RUN TIME: 0 days 0 hours 0 minutes 7 seconds 129 msec
