                         Program Version 3.0.3 - RELEASE   -
|  1> ! RI PBE def2-SVP def2-SVP/J NBO PAL2
|  2> % maxcore 2000
|  3> % output
|  4>     # printlevel mini
|  5>     print[ P_Basis ] 0
|  6>     print[ P_SCFInfo ] 1
|  7>     print[ P_SCFIterInfo ] 1
|  8>     print[ P_OrbEn ] 0
|  9>     print[ P_Cartesian ] 0
| 10> end
| 11> *xyz 0 1
| 12>  C        1.9792940000    -0.7692630000    -0.1380430000
| 13>  N        3.1645620000    -0.3505790000    -0.2739140000
| 14>  O        3.2476670000     0.6786920000    -1.1780550000
| 15>  C        4.5885370000     1.1349740000    -1.2615950000
| 16>  C        4.6774720000     2.1019520000    -2.3977450000
| 17>  C        4.4079740000     3.5317120000    -2.1612400000
| 18>  N        5.7689980000     3.0679840000    -2.4144060000
| 19>  H        1.8319860000    -1.5865410000     0.5572580000
| 20>  H        1.1375470000    -0.3449370000    -0.6835200000
| 21>  H        5.2509860000     0.2768190000    -1.4163530000
| 22>  H        4.8756050000     1.6275560000    -0.3226860000
| 23>  H        4.4449090000     1.6843670000    -3.3731300000
| 24>  H        4.1359530000     3.8274000000    -1.1524710000
| 25>  H        3.9765590000     4.1379190000    -2.9495840000
| 26>  H        6.2921610000     3.0233460000    -1.5454270000
| 27> *
| 28>
| 29>                          ****END OF INPUT****
 Total Charge           Charge          ....    0
 Multiplicity           Mult            ....    1
 Number of Electrons    NEL             ....   54
 Basis Dimension        Dim             ....  138

MULLIKEN ATOMIC CHARGES
-----------------------
   0 C :   -0.018277
   1 N :   -0.011513
   2 O :   -0.286344
   3 C :    0.303293
   4 C :   -0.137433
   5 C :    0.040188
   6 N :   -0.190775
   7 H :    0.054684
   8 H :    0.031721
   9 H :    0.020068
  10 H :   -0.018989
  11 H :    0.032366
  12 H :    0.030360
  13 H :    0.043096
  14 H :    0.107555
Sum of atomic charges:    0.0000000

LOEWDIN ATOMIC CHARGES
----------------------
   0 C :   -0.045240
   1 N :    0.009934
   2 O :   -0.084641
   3 C :    0.049546
   4 C :   -0.017533
   5 C :    0.004772
   6 N :   -0.094083
   7 H :    0.027749
   8 H :    0.006838
   9 H :    0.016897
  10 H :    0.007534
  11 H :    0.025272
  12 H :    0.016192
  13 H :    0.024790
  14 H :    0.051973

  Mayer bond orders larger than 0.1
B(  0-C ,  1-N ) :   1.9386 B(  0-C ,  2-O ) :   0.1206 B(  0-C ,  7-H ) :   0.9531
B(  0-C ,  8-H ) :   0.9322 B(  1-N ,  2-O ) :   0.9709 B(  2-O ,  3-C ) :   0.9459
B(  3-C ,  4-C ) :   1.0541 B(  3-C ,  9-H ) :   0.9307 B(  3-C , 10-H ) :   0.9119
B(  4-C ,  5-C ) :   1.0484 B(  4-C ,  6-N ) :   0.9915 B(  4-C , 11-H ) :   0.9309
B(  5-C ,  6-N ) :   1.0105 B(  5-C , 12-H ) :   0.9412 B(  5-C , 13-H ) :   0.9419
B(  6-N , 14-H ) :   0.9485

FINAL SINGLE POINT ENERGY      -341.181713146713

DIPOLE MOMENT
-------------
                                X             Y             Z
Electronic contribution:     -0.51816      -1.87355       0.20673
Nuclear contribution   :      0.18224       1.83004       0.21399
                        -----------------------------------------
Total Dipole Moment    :     -0.33592      -0.04350       0.42072
                        -----------------------------------------
Magnitude (a.u.)       :      0.54013
Magnitude (Debye)      :      1.37290

                             ****ORCA TERMINATED NORMALLY****
TOTAL RUN TIME: 0 days 0 hours 0 minutes 6 seconds 304 msec
