                         Program Version 3.0.3 - RELEASE   -
|  1> ! RI PBE def2-SVP def2-SVP/J NBO PAL2
|  2> % maxcore 2000
|  3> % output
|  4>     # printlevel mini
|  5>     print[ P_Basis ] 0
|  6>     print[ P_SCFInfo ] 1
|  7>     print[ P_SCFIterInfo ] 1
|  8>     print[ P_OrbEn ] 0
|  9>     print[ P_Cartesian ] 0
| 10> end
| 11> *xyz 0 1
| 12>  C        1.0950800000    -0.1783490000     0.1230330000
| 13>  N        2.3585150000    -0.1360100000     0.1362720000
| 14>  O        2.8486630000     0.2373470000     1.3635370000
| 15>  C        4.2656100000     0.2192890000     1.3384900000
| 16>  C        4.7382910000     0.8479320000     2.6128820000
| 17>  C        5.0523410000     0.0386510000     3.7840550000
| 18>  O        6.0810890000     0.5613110000     2.9581370000
| 19>  H        0.6312150000    -0.4608670000    -0.8139890000
| 20>  H        0.4874250000     0.0545520000     0.9963100000
| 21>  H        4.6256370000     0.7824390000     0.4716350000
| 22>  H        4.6400210000    -0.8075730000     1.2669490000
| 23>  H        4.4391750000     1.8836300000     2.7655960000
| 24>  H        4.9192640000    -1.0393720000     3.7337570000
| 25>  H        4.9842530000     0.4795080000     4.7749450000
| 26> *
| 27>
| 28>                          ****END OF INPUT****
 Total Charge           Charge          ....    0
 Multiplicity           Mult            ....    1
 Number of Electrons    NEL             ....   54
 Basis Dimension        Dim             ....  133

MULLIKEN ATOMIC CHARGES
-----------------------
   0 C :   -0.021788
   1 N :   -0.008188
   2 O :   -0.293219
   3 C :    0.312001
   4 C :   -0.054642
   5 C :    0.146307
   6 O :   -0.286315
   7 H :    0.056563
   8 H :    0.035477
   9 H :    0.019936
  10 H :   -0.001470
  11 H :    0.030530
  12 H :    0.030521
  13 H :    0.034288
Sum of atomic charges:    0.0000000

LOEWDIN ATOMIC CHARGES
----------------------
   0 C :   -0.045147
   1 N :    0.012093
   2 O :   -0.086747
   3 C :    0.051836
   4 C :    0.029188
   5 C :    0.059933
   6 O :   -0.147382
   7 H :    0.028707
   8 H :    0.007687
   9 H :    0.019420
  10 H :    0.015969
  11 H :    0.019281
  12 H :    0.016692
  13 H :    0.018470

  Mayer bond orders larger than 0.1
B(  0-C ,  1-N ) :   1.9415 B(  0-C ,  2-O ) :   0.1205 B(  0-C ,  7-H ) :   0.9517
B(  0-C ,  8-H ) :   0.9316 B(  1-N ,  2-O ) :   0.9672 B(  2-O ,  3-C ) :   0.9447
B(  3-C ,  4-C ) :   1.0358 B(  3-C ,  9-H ) :   0.9274 B(  3-C , 10-H ) :   0.9166
B(  4-C ,  5-C ) :   1.0917 B(  4-C ,  6-O ) :   0.9823 B(  4-C , 11-H ) :   0.9321
B(  5-C ,  6-O ) :   1.0003 B(  5-C , 12-H ) :   0.9294 B(  5-C , 13-H ) :   0.9407

FINAL SINGLE POINT ENERGY      -361.022730112549

DIPOLE MOMENT
-------------
                                X             Y             Z
Electronic contribution:      0.98265       0.59395      -0.54378
Nuclear contribution   :     -1.65479      -0.64801       0.77208
                        -----------------------------------------
Total Dipole Moment    :     -0.67214      -0.05406       0.22831
                        -----------------------------------------
Magnitude (a.u.)       :      0.71192
Magnitude (Debye)      :      1.80955

                             ****ORCA TERMINATED NORMALLY****
TOTAL RUN TIME: 0 days 0 hours 0 minutes 6 seconds 160 msec
