                         Program Version 3.0.3 - RELEASE   -
|  1> ! RI PBE def2-SVP def2-SVP/J NBO PAL2
|  2> % maxcore 2000
|  3> % output
|  4>     # printlevel mini
|  5>     print[ P_Basis ] 0
|  6>     print[ P_SCFInfo ] 1
|  7>     print[ P_SCFIterInfo ] 1
|  8>     print[ P_OrbEn ] 0
|  9>     print[ P_Cartesian ] 0
| 10> end
| 11> *xyz 0 1
| 12>  C        1.1678960000    -0.4526720000    -0.3168980000
| 13>  N        2.4166130000    -0.2565880000    -0.2898360000
| 14>  O        3.1159960000    -1.3053560000    -0.8311870000
| 15>  C        4.5061660000    -1.0320470000    -0.7727150000
| 16>  C        5.2060140000    -2.2285250000    -1.3928320000
| 17>  C        6.6488440000    -2.0672720000    -1.3910130000
| 18>  C        7.8392270000    -1.9159690000    -1.3806280000
| 19>  H        0.5463130000     0.3331910000     0.0941990000
| 20>  H        0.7212860000    -1.3573560000    -0.7270700000
| 21>  H        4.8175720000    -0.8938110000     0.2667560000
| 22>  H        4.7317660000    -0.1171220000    -1.3281140000
| 23>  H        4.8492760000    -2.3639800000    -2.4188430000
| 24>  H        4.9333250000    -3.1331770000    -0.8400820000
| 25>  H        8.8957160000    -1.7880260000    -1.3744560000
| 26> *
| 27>
| 28>                          ****END OF INPUT****
 Total Charge           Charge          ....    0
 Multiplicity           Mult            ....    1
 Number of Electrons    NEL             ....   52
 Basis Dimension        Dim             ....  133

MULLIKEN ATOMIC CHARGES
-----------------------
   0 C :   -0.024783
   1 N :   -0.005617
   2 O :   -0.287858
   3 C :    0.188876
   4 C :    0.065048
   5 C :    0.306851
   6 C :   -0.477239
   7 H :    0.058028
   8 H :    0.033288
   9 H :    0.024302
  10 H :    0.023870
  11 H :    0.047874
  12 H :    0.047436
  13 H :   -0.000076
Sum of atomic charges:   -0.0000000

LOEWDIN ATOMIC CHARGES
----------------------
   0 C :   -0.045745
   1 N :    0.013603
   2 O :   -0.086871
   3 C :    0.068174
   4 C :   -0.054668
   5 C :   -0.022705
   6 C :   -0.082175
   7 H :    0.028855
   8 H :    0.006967
   9 H :    0.017166
  10 H :    0.016978
  11 H :    0.052792
  12 H :    0.052564
  13 H :    0.035064

  Mayer bond orders larger than 0.1
B(  0-C ,  1-N ) :   1.9462 B(  0-C ,  2-O ) :   0.1199 B(  0-C ,  7-H ) :   0.9518
B(  0-C ,  8-H ) :   0.9318 B(  1-N ,  2-O ) :   0.9685 B(  2-O ,  3-C ) :   0.9582
B(  3-C ,  4-C ) :   1.0625 B(  3-C ,  9-H ) :   0.9455 B(  3-C , 10-H ) :   0.9463
B(  4-C ,  5-C ) :   1.0431 B(  4-C , 11-H ) :   0.8952 B(  4-C , 12-H ) :   0.8970
B(  5-C ,  6-C ) :   2.3686 B(  5-C , 13-H ) :  -0.1110 B(  6-C , 13-H ) :   1.1024

FINAL SINGLE POINT ENERGY      -323.932898319372

DIPOLE MOMENT
-------------
                                X             Y             Z
Electronic contribution:      0.38994       0.07580       0.01409
Nuclear contribution   :     -0.63100      -0.19668      -0.05967
                        -----------------------------------------
Total Dipole Moment    :     -0.24106      -0.12088      -0.04558
                        -----------------------------------------
Magnitude (a.u.)       :      0.27350
Magnitude (Debye)      :      0.69517

                             ****ORCA TERMINATED NORMALLY****
TOTAL RUN TIME: 0 days 0 hours 0 minutes 6 seconds 645 msec
