                         Program Version 3.0.3 - RELEASE   -
|  1> ! RI PBE def2-SVP def2-SVP/J NBO PAL2
|  2> % maxcore 2000
|  3> % output
|  4>     # printlevel mini
|  5>     print[ P_Basis ] 0
|  6>     print[ P_SCFInfo ] 1
|  7>     print[ P_SCFIterInfo ] 1
|  8>     print[ P_OrbEn ] 0
|  9>     print[ P_Cartesian ] 0
| 10> end
| 11> *xyz 0 1
| 12>  C        1.2360030000     2.0399700000     0.6194590000
| 13>  N        2.4825590000     1.8544310000     0.7114860000
| 14>  O        2.7881760000     0.5476750000     1.0220440000
| 15>  C        4.1881370000     0.3967440000     1.1127490000
| 16>  C        4.7267220000     1.0396330000     2.3894290000
| 17>  C        6.1590680000     0.8445330000     2.5217280000
| 18>  N        7.2927970000     0.6721840000     2.6021920000
| 19>  H        0.9142260000     3.0432880000     0.3689070000
| 20>  H        0.5085480000     1.2449780000     0.7758270000
| 21>  H        4.6722410000     0.8288690000     0.2334010000
| 22>  H        4.3617540000    -0.6799210000     1.1207320000
| 23>  H        4.2255700000     0.6099380000     3.2611120000
| 24>  H        4.5103100000     2.1108880000     2.3732540000
| 25> *
| 26>
| 27>                          ****END OF INPUT****
 Total Charge           Charge          ....    0
 Multiplicity           Mult            ....    1
 Number of Electrons    NEL             ....   52
 Basis Dimension        Dim             ....  128

MULLIKEN ATOMIC CHARGES
-----------------------
   0 C :   -0.009608
   1 N :   -0.020019
   2 O :   -0.263879
   3 C :    0.163520
   4 C :    0.070774
   5 C :   -0.296486
   6 N :    0.050698
   7 H :    0.060602
   8 H :    0.041764
   9 H :    0.033829
  10 H :    0.046935
  11 H :    0.056517
  12 H :    0.065351
Sum of atomic charges:    0.0000000

LOEWDIN ATOMIC CHARGES
----------------------
   0 C :   -0.034041
   1 N :    0.009327
   2 O :   -0.074207
   3 C :    0.062447
   4 C :   -0.073681
   5 C :   -0.047091
   6 N :   -0.061758
   7 H :    0.031224
   8 H :    0.011377
   9 H :    0.022199
  10 H :    0.033275
  11 H :    0.059845
  12 H :    0.061085

  Mayer bond orders larger than 0.1
B(  0-C ,  1-N ) :   1.9417 B(  0-C ,  2-O ) :   0.1135 B(  0-C ,  7-H ) :   0.9517
B(  0-C ,  8-H ) :   0.9328 B(  1-N ,  2-O ) :   0.9566 B(  2-O ,  3-C ) :   0.9993
B(  3-C ,  4-C ) :   1.0803 B(  3-C ,  9-H ) :   0.9412 B(  3-C , 10-H ) :   0.9453
B(  4-C ,  5-C ) :   1.1045 B(  4-C , 11-H ) :   0.8802 B(  4-C , 12-H ) :   0.8797
B(  5-C ,  6-N ) :   3.0506

FINAL SINGLE POINT ENERGY      -340.013434234268

DIPOLE MOMENT
-------------
                                X             Y             Z
Electronic contribution:      3.21020      -0.63822       0.84060
Nuclear contribution   :     -4.76938       0.78517      -1.02606
                        -----------------------------------------
Total Dipole Moment    :     -1.55918       0.14696      -0.18546
                        -----------------------------------------
Magnitude (a.u.)       :      1.57703
Magnitude (Debye)      :      4.00850

                             ****ORCA TERMINATED NORMALLY****
TOTAL RUN TIME: 0 days 0 hours 0 minutes 5 seconds 669 msec
