                         Program Version 3.0.3 - RELEASE   -
|  1> ! RI PBE def2-SVP def2-SVP/J NBO PAL2
|  2> % maxcore 2000
|  3> % output
|  4>     # printlevel mini
|  5>     print[ P_Basis ] 0
|  6>     print[ P_SCFInfo ] 1
|  7>     print[ P_SCFIterInfo ] 1
|  8>     print[ P_OrbEn ] 0
|  9>     print[ P_Cartesian ] 0
| 10> end
| 11> *xyz 0 1
| 12>  C        1.4685970000    -0.7349000000     2.3538490000
| 13>  N        2.6979730000    -0.8011200000     2.0672200000
| 14>  O        2.9050100000    -1.1233190000     0.7470650000
| 15>  C        4.2981710000    -1.1929400000     0.4849290000
| 16>  C        4.9446880000    -2.4390360000     1.0701110000
| 17>  C        4.4423110000    -3.7113880000     0.4541280000
| 18>  O        5.1490510000    -4.6172960000     0.1034480000
| 19>  H        1.2236360000    -0.4751160000     3.3763650000
| 20>  H        0.6821670000    -0.9218230000     1.6241170000
| 21>  H        4.7875010000    -0.2972900000     0.8768610000
| 22>  H        4.3723490000    -1.1800410000    -0.6047860000
| 23>  H        4.7133840000    -2.4648370000     2.1421780000
| 24>  H        6.0309130000    -2.3999280000     0.9614810000
| 25>  H        3.3400580000    -3.7782660000     0.3353210000
| 26> *
| 27>
| 28>                          ****END OF INPUT****
 Total Charge           Charge          ....    0
 Multiplicity           Mult            ....    1
 Number of Electrons    NEL             ....   54
 Basis Dimension        Dim             ....  133

MULLIKEN ATOMIC CHARGES
-----------------------
   0 C :   -0.010190
   1 N :   -0.020053
   2 O :   -0.272510
   3 C :    0.171378
   4 C :   -0.026174
   5 C :    0.072942
   6 O :   -0.162679
   7 H :    0.057454
   8 H :    0.037666
   9 H :    0.022039
  10 H :    0.034160
  11 H :    0.062444
  12 H :    0.037032
  13 H :   -0.003510
Sum of atomic charges:    0.0000000

LOEWDIN ATOMIC CHARGES
----------------------
   0 C :   -0.038234
   1 N :    0.008686
   2 O :   -0.081022
   3 C :    0.057292
   4 C :   -0.100073
   5 C :    0.089737
   6 O :   -0.107134
   7 H :    0.029670
   8 H :    0.009587
   9 H :    0.019709
  10 H :    0.027464
  11 H :    0.052860
  12 H :    0.042782
  13 H :   -0.011323

  Mayer bond orders larger than 0.1
B(  0-C ,  1-N ) :   1.9377 B(  0-C ,  2-O ) :   0.1164 B(  0-C ,  7-H ) :   0.9519
B(  0-C ,  8-H ) :   0.9328 B(  1-N ,  2-O ) :   0.9651 B(  2-O ,  3-C ) :   0.9697
B(  3-C ,  4-C ) :   1.0624 B(  3-C ,  9-H ) :   0.9320 B(  3-C , 10-H ) :   0.9481
B(  4-C ,  5-C ) :   0.9670 B(  4-C , 11-H ) :   0.9004 B(  4-C , 12-H ) :   0.9176
B(  5-C ,  6-O ) :   2.1764 B(  5-C , 13-H ) :   0.9278

FINAL SINGLE POINT ENERGY      -361.057910462540

DIPOLE MOMENT
-------------
                                X             Y             Z
Electronic contribution:      0.20712      -2.09768      -1.11144
Nuclear contribution   :     -0.69438       2.92997       1.42199
                        -----------------------------------------
Total Dipole Moment    :     -0.48726       0.83229       0.31055
                        -----------------------------------------
Magnitude (a.u.)       :      1.01320
Magnitude (Debye)      :      2.57534

                             ****ORCA TERMINATED NORMALLY****
TOTAL RUN TIME: 0 days 0 hours 0 minutes 6 seconds 436 msec
