                         Program Version 3.0.3 - RELEASE   -
|  1> ! RI PBE def2-SVP def2-SVP/J NBO PAL2
|  2> % maxcore 2000
|  3> % output
|  4>     # printlevel mini
|  5>     print[ P_Basis ] 0
|  6>     print[ P_SCFInfo ] 1
|  7>     print[ P_SCFIterInfo ] 1
|  8>     print[ P_OrbEn ] 0
|  9>     print[ P_Cartesian ] 0
| 10> end
| 11> *xyz 0 1
| 12>  C        2.3311470000     0.0468370000     1.6670730000
| 13>  N        2.1512230000     0.1664530000     0.2331060000
| 14>  O        1.4800330000    -0.9798670000    -0.2172410000
| 15>  C        3.2865540000     0.4458700000    -0.5556040000
| 16>  N        3.6184740000    -0.1760010000    -1.6096280000
| 17>  C        4.0392100000     1.6350560000    -0.1035390000
| 18>  C        5.3008330000     1.8483180000    -0.4515800000
| 19>  H        2.8510950000    -0.8820300000     1.9291020000
| 20>  H        1.3546540000     0.0589110000     2.1513090000
| 21>  H        2.9154900000     0.8904310000     2.0304450000
| 22>  H        0.6754160000    -0.6371980000    -0.6203900000
| 23>  H        3.0074750000    -0.9807060000    -1.7395980000
| 24>  H        3.5097660000     2.3527310000     0.5149690000
| 25>  H        5.8246720000     1.1329650000    -1.0750380000
| 26>  H        5.8283590000     2.7400300000    -0.1349650000
| 27> *
| 28>
| 29>                          ****END OF INPUT****
 Total Charge           Charge          ....    0
 Multiplicity           Mult            ....    1
 Number of Electrons    NEL             ....   54
 Basis Dimension        Dim             ....  138

MULLIKEN ATOMIC CHARGES
-----------------------
   0 C :    0.119506
   1 N :   -0.172445
   2 O :   -0.200766
   3 C :   -0.071383
   4 N :   -0.073503
   5 C :   -0.044781
   6 C :    0.016393
   7 H :    0.024347
   8 H :    0.028873
   9 H :    0.036366
  10 H :    0.187592
  11 H :    0.078489
  12 H :    0.006234
  13 H :    0.042310
  14 H :    0.022768
Sum of atomic charges:    0.0000000

LOEWDIN ATOMIC CHARGES
----------------------
   0 C :    0.004671
   1 N :   -0.000432
   2 O :   -0.060679
   3 C :   -0.019426
   4 N :   -0.134781
   5 C :   -0.053058
   6 C :   -0.008969
   7 H :    0.017973
   8 H :    0.023218
   9 H :    0.032469
  10 H :    0.079174
  11 H :    0.033461
  12 H :    0.026336
  13 H :    0.033445
  14 H :    0.026598

  Mayer bond orders larger than 0.1
B(  0-C ,  1-N ) :   0.9855 B(  0-C ,  7-H ) :   0.9533 B(  0-C ,  8-H ) :   0.9686
B(  0-C ,  9-H ) :   0.9536 B(  1-N ,  2-O ) :   0.9524 B(  1-N ,  3-C ) :   1.0058
B(  2-O , 10-H ) :   0.9709 B(  3-C ,  4-N ) :   2.0549 B(  3-C ,  5-C ) :   1.0128
B(  4-N , 11-H ) :   0.9140 B(  5-C ,  6-C ) :   1.9753 B(  5-C , 12-H ) :   0.9435
B(  6-C , 13-H ) :   0.9380 B(  6-C , 14-H ) :   0.9328

FINAL SINGLE POINT ENERGY      -341.207903334212

DIPOLE MOMENT
-------------
                                X             Y             Z
Electronic contribution:     -1.84017      -1.38467      -3.04274
Nuclear contribution   :      1.07205       1.61405       3.83354
                        -----------------------------------------
Total Dipole Moment    :     -0.76812       0.22938       0.79080
                        -----------------------------------------
Magnitude (a.u.)       :      1.12605
Magnitude (Debye)      :      2.86219

                             ****ORCA TERMINATED NORMALLY****
TOTAL RUN TIME: 0 days 0 hours 0 minutes 6 seconds 729 msec
