                         Program Version 3.0.3 - RELEASE   -
|  1> ! RI PBE def2-SVP def2-SVP/J NBO PAL2
|  2> % maxcore 2000
|  3> % output
|  4>     # printlevel mini
|  5>     print[ P_Basis ] 0
|  6>     print[ P_SCFInfo ] 1
|  7>     print[ P_SCFIterInfo ] 1
|  8>     print[ P_OrbEn ] 0
|  9>     print[ P_Cartesian ] 0
| 10> end
| 11> *xyz 0 1
| 12>  C        0.9139070000    -0.0524590000     0.4231570000
| 13>  N        2.1830140000     0.2036170000    -0.2254780000
| 14>  O        2.8701210000    -0.9988880000    -0.4120340000
| 15>  C        3.0316520000     1.1999640000     0.2803540000
| 16>  N        4.2958620000     1.1411860000     0.3698810000
| 17>  C        2.3514330000     2.4188010000     0.6341920000
| 18>  C        1.8059370000     3.4454970000     0.9311250000
| 19>  H        0.2911070000    -0.6498000000    -0.2426700000
| 20>  H        0.4211240000     0.8999970000     0.6090770000
| 21>  H        1.0452900000    -0.5867740000     1.3708290000
| 22>  H        2.9034480000    -1.1083540000    -1.3687300000
| 23>  H        4.6079990000     0.2074700000     0.1042610000
| 24>  H        1.3364060000     4.3628540000     1.1989370000
| 25> *
| 26>
| 27>                          ****END OF INPUT****
 Total Charge           Charge          ....    0
 Multiplicity           Mult            ....    1
 Number of Electrons    NEL             ....   52
 Basis Dimension        Dim             ....  128

MULLIKEN ATOMIC CHARGES
-----------------------
   0 C :    0.110557
   1 N :   -0.159951
   2 O :   -0.194468
   3 C :   -0.069723
   4 N :   -0.069994
   5 C :    0.427385
   6 C :   -0.441507
   7 H :    0.030733
   8 H :    0.052981
   9 H :    0.028580
  10 H :    0.190114
  11 H :    0.083840
  12 H :    0.011453
Sum of atomic charges:    0.0000000

LOEWDIN ATOMIC CHARGES
----------------------
   0 C :    0.004349
   1 N :    0.011442
   2 O :   -0.054635
   3 C :   -0.031469
   4 N :   -0.114940
   5 C :   -0.014412
   6 C :   -0.041611
   7 H :    0.024674
   8 H :    0.039439
   9 H :    0.019732
  10 H :    0.081233
  11 H :    0.036425
  12 H :    0.039772

  Mayer bond orders larger than 0.1
B(  0-C ,  1-N ) :   0.9827 B(  0-C ,  7-H ) :   0.9676 B(  0-C ,  8-H ) :   0.9493
B(  0-C ,  9-H ) :   0.9536 B(  1-N ,  2-O ) :   0.9507 B(  1-N ,  3-C ) :   1.0371
B(  1-N ,  4-N ) :   0.1035 B(  2-O , 10-H ) :   0.9696 B(  3-C ,  4-N ) :   2.0249
B(  3-C ,  5-C ) :   0.9289 B(  4-N , 11-H ) :   0.9061 B(  5-C ,  6-C ) :   2.3089
B(  5-C , 12-H ) :  -0.1026 B(  6-C , 12-H ) :   1.0921

FINAL SINGLE POINT ENERGY      -339.960254829457

DIPOLE MOMENT
-------------
                                X             Y             Z
Electronic contribution:      3.01866       1.74280      -0.67754
Nuclear contribution   :     -4.07592      -2.27583       0.15855
                        -----------------------------------------
Total Dipole Moment    :     -1.05726      -0.53302      -0.51899
                        -----------------------------------------
Magnitude (a.u.)       :      1.29278
Magnitude (Debye)      :      3.28598

                             ****ORCA TERMINATED NORMALLY****
TOTAL RUN TIME: 0 days 0 hours 0 minutes 6 seconds 275 msec
