                         Program Version 3.0.3 - RELEASE   -
|  1> ! RI PBE def2-SVP def2-SVP/J NBO PAL2
|  2> % maxcore 2000
|  3> % output
|  4>     # printlevel mini
|  5>     print[ P_Basis ] 0
|  6>     print[ P_SCFInfo ] 1
|  7>     print[ P_SCFIterInfo ] 1
|  8>     print[ P_OrbEn ] 0
|  9>     print[ P_Cartesian ] 0
| 10> end
| 11> *xyz 0 1
| 12>  C        0.9629520000     0.6207720000     0.0102750000
| 13>  N        2.1781620000     0.2892830000     0.0862870000
| 14>  O        2.9269650000     1.3624020000     0.5778060000
| 15>  C        4.2535270000     1.0773270000     0.6879830000
| 16>  O        4.7821960000     0.0473650000     0.4132280000
| 17>  C        4.9319470000     2.2461370000     1.2014800000
| 18>  C        5.5496480000     3.1827370000     1.6246280000
| 19>  H        0.2878860000    -0.1414150000    -0.3614280000
| 20>  H        0.5890570000     1.6032490000     0.2934430000
| 21>  H        6.1010590000     4.0137340000     1.9993080000
| 22> *
| 23>
| 24>                          ****END OF INPUT****
 Total Charge           Charge          ....    0
 Multiplicity           Mult            ....    1
 Number of Electrons    NEL             ....   50
 Basis Dimension        Dim             ....  113

MULLIKEN ATOMIC CHARGES
-----------------------
   0 C :    0.007612
   1 N :    0.018978
   2 O :   -0.214780
   3 C :    0.170763
   4 O :   -0.121416
   5 C :    0.383368
   6 C :   -0.394282
   7 H :    0.073722
   8 H :    0.049956
   9 H :    0.026078
Sum of atomic charges:   -0.0000000

LOEWDIN ATOMIC CHARGES
----------------------
   0 C :   -0.003813
   1 N :    0.034947
   2 O :   -0.023580
   3 C :    0.019840
   4 O :   -0.081518
   5 C :   -0.042854
   6 C :   -0.000448
   7 H :    0.037451
   8 H :    0.014934
   9 H :    0.045042

  Mayer bond orders larger than 0.1
B(  0-C ,  1-N ) :   1.9700 B(  0-C ,  7-H ) :   0.9466 B(  0-C ,  8-H ) :   0.9296
B(  1-N ,  2-O ) :   0.9176 B(  2-O ,  3-C ) :   1.0793 B(  2-O ,  4-O ) :   0.1005
B(  3-C ,  4-O ) :   2.1457 B(  3-C ,  5-C ) :   0.8824 B(  5-C ,  6-C ) :   2.3660
B(  6-C ,  9-H ) :   1.0807

FINAL SINGLE POINT ENERGY      -358.615162620304

DIPOLE MOMENT
-------------
                                X             Y             Z
Electronic contribution:      2.78455      -0.73157       0.18577
Nuclear contribution   :     -3.58510       1.70353       0.02633
                        -----------------------------------------
Total Dipole Moment    :     -0.80055       0.97196       0.21210
                        -----------------------------------------
Magnitude (a.u.)       :      1.27694
Magnitude (Debye)      :      3.24571

                             ****ORCA TERMINATED NORMALLY****
TOTAL RUN TIME: 0 days 0 hours 0 minutes 5 seconds 285 msec
