                         Program Version 3.0.3 - RELEASE   -
|  1> ! RI PBE def2-SVP def2-SVP/J NBO PAL2
|  2> % maxcore 2000
|  3> % output
|  4>     # printlevel mini
|  5>     print[ P_Basis ] 0
|  6>     print[ P_SCFInfo ] 1
|  7>     print[ P_SCFIterInfo ] 1
|  8>     print[ P_OrbEn ] 0
|  9>     print[ P_Cartesian ] 0
| 10> end
| 11> *xyz 0 1
| 12>  C        1.0744870000     0.5865700000    -0.2632320000
| 13>  N        2.4737310000     0.2840870000    -0.1312510000
| 14>  O        2.8028290000    -1.0173210000    -0.4804960000
| 15>  C        3.2801890000     0.9483740000     0.7578250000
| 16>  O        2.9068080000     1.9873560000     1.2695460000
| 17>  C        4.6211390000     0.3588890000     1.0045570000
| 18>  C        5.4712930000     0.9907040000     1.8029920000
| 19>  H        0.7815280000     0.5689540000    -1.3157340000
| 20>  H        0.9163600000     1.5825470000     0.1441770000
| 21>  H        0.4693360000    -0.1388020000     0.2889050000
| 22>  H        3.0642750000    -0.9733300000    -1.4082020000
| 23>  H        4.8735610000    -0.5829090000     0.5369530000
| 24>  H        5.1858620000     1.9287170000     2.2664590000
| 25>  H        6.4560950000     0.5897750000     2.0106120000
| 26> *
| 27>
| 28>                          ****END OF INPUT****
 Total Charge           Charge          ....    0
 Multiplicity           Mult            ....    1
 Number of Electrons    NEL             ....   54
 Basis Dimension        Dim             ....  133

MULLIKEN ATOMIC CHARGES
-----------------------
   0 C :    0.108232
   1 N :   -0.160415
   2 O :   -0.181853
   3 C :    0.136541
   4 O :   -0.214913
   5 C :   -0.085528
   6 C :    0.031033
   7 H :    0.021732
   8 H :    0.053379
   9 H :    0.040353
  10 H :    0.186389
  11 H :   -0.004688
  12 H :    0.042285
  13 H :    0.027453
Sum of atomic charges:    0.0000000

LOEWDIN ATOMIC CHARGES
----------------------
   0 C :    0.005964
   1 N :    0.035707
   2 O :   -0.051288
   3 C :    0.016132
   4 O :   -0.188269
   5 C :   -0.074508
   6 C :    0.006945
   7 H :    0.021227
   8 H :    0.039860
   9 H :    0.026683
  10 H :    0.079460
  11 H :    0.021252
  12 H :    0.032436
  13 H :    0.028399

  Mayer bond orders larger than 0.1
B(  0-C ,  1-N ) :   0.9817 B(  0-C ,  7-H ) :   0.9660 B(  0-C ,  8-H ) :   0.9441
B(  0-C ,  9-H ) :   0.9637 B(  1-N ,  2-O ) :   0.9527 B(  1-N ,  3-C ) :   1.1048
B(  1-N ,  4-O ) :   0.1113 B(  2-O , 10-H ) :   0.9682 B(  3-C ,  4-O ) :   2.0430
B(  3-C ,  5-C ) :   0.9828 B(  5-C ,  6-C ) :   1.9680 B(  5-C , 11-H ) :   0.9361
B(  6-C , 12-H ) :   0.9304 B(  6-C , 13-H ) :   0.9388

FINAL SINGLE POINT ENERGY      -361.078338594120

DIPOLE MOMENT
-------------
                                X             Y             Z
Electronic contribution:      0.54901       0.19091       0.10383
Nuclear contribution   :     -0.49016      -0.92464      -1.08227
                        -----------------------------------------
Total Dipole Moment    :      0.05885      -0.73373      -0.97844
                        -----------------------------------------
Magnitude (a.u.)       :      1.22441
Magnitude (Debye)      :      3.11220

                             ****ORCA TERMINATED NORMALLY****
TOTAL RUN TIME: 0 days 0 hours 0 minutes 6 seconds 368 msec
