                         Program Version 3.0.3 - RELEASE   -
|  1> ! RI PBE def2-SVP def2-SVP/J NBO PAL2
|  2> % maxcore 2000
|  3> % output
|  4>     # printlevel mini
|  5>     print[ P_Basis ] 0
|  6>     print[ P_SCFInfo ] 1
|  7>     print[ P_SCFIterInfo ] 1
|  8>     print[ P_OrbEn ] 0
|  9>     print[ P_Cartesian ] 0
| 10> end
| 11> *xyz 0 1
| 12>  C        0.8210620000    -0.1631390000    -0.0061610000
| 13>  N        2.2436640000    -0.0909580000     0.0808210000
| 14>  O        2.8933050000    -0.3190680000    -1.1046580000
| 15>  C        3.0523340000     0.1623340000     1.1203810000
| 16>  O        4.2715530000     0.1754830000     0.9629720000
| 17>  C        2.4132290000     0.4091790000     2.3904220000
| 18>  C        1.9519680000     0.6237400000     3.4774050000
| 19>  H        0.4487300000     0.5836300000    -0.7121850000
| 20>  H        0.4098270000     0.0315690000     0.9821990000
| 21>  H        0.5145450000    -1.1571700000    -0.3418430000
| 22>  H        3.8294380000    -0.2219870000    -0.8188400000
| 23>  H        1.5498240000     0.8150990000     4.4450880000
| 24> *
| 25>
| 26>                          ****END OF INPUT****
 Total Charge           Charge          ....    0
 Multiplicity           Mult            ....    1
 Number of Electrons    NEL             ....   52
 Basis Dimension        Dim             ....  123

MULLIKEN ATOMIC CHARGES
-----------------------
   0 C :    0.117510
   1 N :   -0.109837
   2 O :   -0.163536
   3 C :    0.157182
   4 O :   -0.253020
   5 C :    0.342065
   6 C :   -0.429661
   7 H :    0.050020
   8 H :    0.055072
   9 H :    0.046525
  10 H :    0.168886
  11 H :    0.018792
Sum of atomic charges:   -0.0000000

LOEWDIN ATOMIC CHARGES
----------------------
   0 C :    0.020107
   1 N :    0.093623
   2 O :   -0.049484
   3 C :   -0.017276
   4 O :   -0.193759
   5 C :   -0.043364
   6 C :   -0.027449
   7 H :    0.034054
   8 H :    0.045215
   9 H :    0.033407
  10 H :    0.062250
  11 H :    0.042676

  Mayer bond orders larger than 0.1
B(  0-C ,  1-N ) :   0.9970 B(  0-C ,  7-H ) :   0.9551 B(  0-C ,  8-H ) :   0.9456
B(  0-C ,  9-H ) :   0.9550 B(  1-N ,  2-O ) :   1.0044 B(  1-N ,  3-C ) :   1.1967
B(  1-N ,  4-O ) :   0.1216 B(  2-O , 10-H ) :   0.9102 B(  3-C ,  4-O ) :   1.9064
B(  3-C ,  5-C ) :   0.8902 B(  4-O , 10-H ) :   0.1309 B(  5-C ,  6-C ) :   2.3029
B(  6-C , 11-H ) :   1.0882

FINAL SINGLE POINT ENERGY      -359.833521867325

DIPOLE MOMENT
-------------
                                X             Y             Z
Electronic contribution:      4.24464       0.37636       0.98743
Nuclear contribution   :     -5.55701      -0.37803      -0.78344
                        -----------------------------------------
Total Dipole Moment    :     -1.31236      -0.00167       0.20399
                        -----------------------------------------
Magnitude (a.u.)       :      1.32812
Magnitude (Debye)      :      3.37582

                             ****ORCA TERMINATED NORMALLY****
TOTAL RUN TIME: 0 days 0 hours 0 minutes 5 seconds 922 msec
