                         Program Version 3.0.3 - RELEASE   -
|  1> ! RI PBE def2-SVP def2-SVP/J NBO PAL2
|  2> % maxcore 2000
|  3> % output
|  4>     # printlevel mini
|  5>     print[ P_Basis ] 0
|  6>     print[ P_SCFInfo ] 1
|  7>     print[ P_SCFIterInfo ] 1
|  8>     print[ P_OrbEn ] 0
|  9>     print[ P_Cartesian ] 0
| 10> end
| 11> *xyz 0 1
| 12>  C        1.3103300000     0.5228970000     0.3192670000
| 13>  O        1.5168440000    -0.6198760000    -0.4721800000
| 14>  C        2.6271100000    -0.5011380000    -1.2924100000
| 15>  C        2.6105760000    -1.2801410000    -2.5562750000
| 16>  C        2.5064580000     0.2265450000    -2.5943750000
| 17>  C        3.6412410000     1.0462340000    -3.1319980000
| 18>  N        3.5545290000     1.1432850000    -4.5813760000
| 19>  H        0.4277930000     0.3383670000     0.9320720000
| 20>  H        1.1401310000     1.4142240000    -0.2978400000
| 21>  H        2.1672900000     0.7144020000     0.9791410000
| 22>  H        3.5738390000    -0.4177640000    -0.7563730000
| 23>  H        1.7129610000    -1.8494450000    -2.7612150000
| 24>  H        3.5360070000    -1.7449910000    -2.8776340000
| 25>  H        1.5158720000     0.6095770000    -2.8187620000
| 26>  H        4.5886180000     0.6118080000    -2.7707860000
| 27>  H        3.5858700000     2.0606740000    -2.7219150000
| 28>  H        3.5798770000     0.2173340000    -4.9920020000
| 29>  H        4.3399440000     1.6599090000    -4.9568590000
| 30> *
| 31>
| 32>                          ****END OF INPUT****
 Total Charge           Charge          ....    0
 Multiplicity           Mult            ....    1
 Number of Electrons    NEL             ....   56
 Basis Dimension        Dim             ....  153

MULLIKEN ATOMIC CHARGES
-----------------------
   0 C :    0.162665
   1 O :   -0.305214
   2 C :    0.062475
   3 C :    0.013948
   4 C :   -0.179065
   5 C :    0.180256
   6 N :   -0.210999
   7 H :    0.032511
   8 H :    0.005813
   9 H :    0.000970
  10 H :    0.000349
  11 H :    0.040556
  12 H :    0.021432
  13 H :    0.028394
  14 H :   -0.027255
  15 H :    0.003449
  16 H :    0.084690
  17 H :    0.085026
Sum of atomic charges:   -0.0000000

LOEWDIN ATOMIC CHARGES
----------------------
   0 C :    0.053677
   1 O :   -0.127473
   2 C :    0.035611
   3 C :   -0.050104
   4 C :   -0.062526
   5 C :    0.013511
   6 N :   -0.112961
   7 H :    0.022678
   8 H :    0.005883
   9 H :    0.005493
  10 H :    0.005463
  11 H :    0.034927
  12 H :    0.024898
  13 H :    0.031730
  14 H :   -0.003032
  15 H :    0.021688
  16 H :    0.049395
  17 H :    0.051142

  Mayer bond orders larger than 0.1
B(  0-C ,  1-O ) :   1.0075 B(  0-C ,  7-H ) :   0.9768 B(  0-C ,  8-H ) :   0.9554
B(  0-C ,  9-H ) :   0.9538 B(  1-O ,  2-C ) :   1.0879 B(  2-C ,  3-C ) :   1.0082
B(  2-C ,  4-C ) :   0.9222 B(  2-C , 10-H ) :   0.9265 B(  3-C ,  4-C ) :   0.9880
B(  3-C , 11-H ) :   0.9344 B(  3-C , 12-H ) :   0.9320 B(  4-C ,  5-C ) :   1.0683
B(  4-C , 13-H ) :   0.9340 B(  5-C ,  6-N ) :   1.0832 B(  5-C , 14-H ) :   0.9111
B(  5-C , 15-H ) :   0.9242 B(  6-N , 16-H ) :   0.9695 B(  6-N , 17-H ) :   0.9615

FINAL SINGLE POINT ENERGY      -326.413824186831

DIPOLE MOMENT
-------------
                                X             Y             Z
Electronic contribution:     -1.47751      -2.16800       0.58937
Nuclear contribution   :      2.07726       2.37445      -0.57828
                        -----------------------------------------
Total Dipole Moment    :      0.59975       0.20645       0.01109
                        -----------------------------------------
Magnitude (a.u.)       :      0.63439
Magnitude (Debye)      :      1.61248

                             ****ORCA TERMINATED NORMALLY****
TOTAL RUN TIME: 0 days 0 hours 0 minutes 7 seconds 789 msec
