                         Program Version 3.0.3 - RELEASE   -
|  1> ! RI PBE def2-SVP def2-SVP/J NBO PAL2
|  2> % maxcore 2000
|  3> % output
|  4>     # printlevel mini
|  5>     print[ P_Basis ] 0
|  6>     print[ P_SCFInfo ] 1
|  7>     print[ P_SCFIterInfo ] 1
|  8>     print[ P_OrbEn ] 0
|  9>     print[ P_Cartesian ] 0
| 10> end
| 11> *xyz 0 1
| 12>  C        1.7062360000     0.0524060000     0.5199660000
| 13>  O        1.1736410000     0.9555730000    -0.4163760000
| 14>  C        2.1244670000     1.3996990000    -1.3204650000
| 15>  C        1.8176490000     2.6604130000    -2.0471780000
| 16>  C        2.9375620000     2.6383770000    -1.0380490000
| 17>  C        2.7349850000     3.3724460000     0.2615590000
| 18>  N        4.2551330000     2.6262610000    -1.6127840000
| 19>  H        0.8898560000    -0.2602940000     1.1714830000
| 20>  H        2.4929700000     0.5162540000     1.1278690000
| 21>  H        2.1255750000    -0.8337140000     0.0251160000
| 22>  H        2.6398060000     0.6124680000    -1.8694940000
| 23>  H        0.9054150000     3.1667360000    -1.7553170000
| 24>  H        2.0782560000     2.7212880000    -3.0957600000
| 25>  H        1.7259710000     3.2235290000     0.6497690000
| 26>  H        2.8946260000     4.4467030000     0.1259110000
| 27>  H        3.4447000000     3.0246520000     1.0193090000
| 28>  H        4.5375000000     3.5631020000    -1.8789340000
| 29>  H        4.9357320000     2.2853300000    -0.9432560000
| 30> *
| 31>
| 32>                          ****END OF INPUT****
 Total Charge           Charge          ....    0
 Multiplicity           Mult            ....    1
 Number of Electrons    NEL             ....   56
 Basis Dimension        Dim             ....  153

MULLIKEN ATOMIC CHARGES
-----------------------
   0 C :    0.164298
   1 O :   -0.302809
   2 C :    0.101854
   3 C :    0.044184
   4 C :   -0.281417
   5 C :    0.102267
   6 N :   -0.130584
   7 H :    0.030312
   8 H :    0.002591
   9 H :    0.004958
  10 H :   -0.001564
  11 H :    0.029912
  12 H :    0.025069
  13 H :    0.012428
  14 H :    0.015063
  15 H :    0.009400
  16 H :    0.088401
  17 H :    0.085635
Sum of atomic charges:   -0.0000000

LOEWDIN ATOMIC CHARGES
----------------------
   0 C :    0.054777
   1 O :   -0.124829
   2 C :    0.033289
   3 C :   -0.046027
   4 C :   -0.052207
   5 C :   -0.066801
   6 N :   -0.079250
   7 H :    0.022270
   8 H :    0.004463
   9 H :    0.007043
  10 H :    0.008343
  11 H :    0.031215
  12 H :    0.030330
  13 H :    0.028788
  14 H :    0.025496
  15 H :    0.020530
  16 H :    0.051622
  17 H :    0.050950

  Mayer bond orders larger than 0.1
B(  0-C ,  1-O ) :   1.0019 B(  0-C ,  7-H ) :   0.9759 B(  0-C ,  8-H ) :   0.9555
B(  0-C ,  9-H ) :   0.9559 B(  1-O ,  2-C ) :   1.0984 B(  2-C ,  3-C ) :   1.0036
B(  2-C ,  4-C ) :   0.8970 B(  2-C , 10-H ) :   0.9197 B(  3-C ,  4-C ) :   0.9691
B(  3-C , 11-H ) :   0.9364 B(  3-C , 12-H ) :   0.9210 B(  4-C ,  5-C ) :   1.0758
B(  4-C ,  6-N ) :   1.1269 B(  5-C , 13-H ) :   0.9245 B(  5-C , 14-H ) :   0.9516
B(  5-C , 15-H ) :   0.9517 B(  6-N , 16-H ) :   0.9636 B(  6-N , 17-H ) :   0.9688

FINAL SINGLE POINT ENERGY      -326.421665024294

DIPOLE MOMENT
-------------
                                X             Y             Z
Electronic contribution:     -1.54771      -0.88750      -2.47254
Nuclear contribution   :      2.07139       1.03723       2.89611
                        -----------------------------------------
Total Dipole Moment    :      0.52369       0.14973       0.42356
                        -----------------------------------------
Magnitude (a.u.)       :      0.68998
Magnitude (Debye)      :      1.75379

                             ****ORCA TERMINATED NORMALLY****
TOTAL RUN TIME: 0 days 0 hours 0 minutes 7 seconds 703 msec
