                         Program Version 3.0.3 - RELEASE   -
|  1> ! RI PBE def2-SVP def2-SVP/J NBO PAL2
|  2> % maxcore 2000
|  3> % output
|  4>     # printlevel mini
|  5>     print[ P_Basis ] 0
|  6>     print[ P_SCFInfo ] 1
|  7>     print[ P_SCFIterInfo ] 1
|  8>     print[ P_OrbEn ] 0
|  9>     print[ P_Cartesian ] 0
| 10> end
| 11> *xyz 0 1
| 12>  C        2.9107850000    -0.6963670000     0.7036180000
| 13>  O        2.1377410000     0.2602430000     0.0116670000
| 14>  C        2.8911900000     1.2912920000    -0.4932970000
| 15>  C        2.2000970000     2.5690070000    -0.7431380000
| 16>  C        3.1765580000     2.4778300000     0.4148820000
| 17>  C        4.4392260000     3.1400610000     0.3382380000
| 18>  N        5.4634680000     3.6607910000     0.2592470000
| 19>  H        2.2271900000    -1.4722470000     1.0454230000
| 20>  H        3.4157470000    -0.2505110000     1.5685800000
| 21>  H        3.6659130000    -1.1457120000     0.0475000000
| 22>  H        3.6974260000     1.0008160000    -1.1654680000
| 23>  H        1.1545810000     2.6215780000    -0.4690400000
| 24>  H        2.4938610000     3.1556430000    -1.6030400000
| 25>  H        2.7401280000     2.4247770000     1.4052280000
| 26> *
| 27>
| 28>                          ****END OF INPUT****
 Total Charge           Charge          ....    0
 Multiplicity           Mult            ....    1
 Number of Electrons    NEL             ....   52
 Basis Dimension        Dim             ....  133

MULLIKEN ATOMIC CHARGES
-----------------------
   0 C :    0.153859
   1 O :   -0.295077
   2 C :    0.079098
   3 C :    0.052979
   4 C :   -0.237969
   5 C :   -0.098026
   6 N :    0.054352
   7 H :    0.042081
   8 H :    0.017190
   9 H :    0.017129
  10 H :    0.032010
  11 H :    0.057438
  12 H :    0.054269
  13 H :    0.070668
Sum of atomic charges:   -0.0000000

LOEWDIN ATOMIC CHARGES
----------------------
   0 C :    0.060167
   1 O :   -0.114303
   2 C :    0.057965
   3 C :   -0.012796
   4 C :   -0.085249
   5 C :   -0.047520
   6 N :   -0.072342
   7 H :    0.027627
   8 H :    0.011266
   9 H :    0.013221
  10 H :    0.020118
  11 H :    0.044003
  12 H :    0.042328
  13 H :    0.055514

  Mayer bond orders larger than 0.1
B(  0-C ,  1-O ) :   0.9870 B(  0-C ,  7-H ) :   0.9767 B(  0-C ,  8-H ) :   0.9580
B(  0-C ,  9-H ) :   0.9585 B(  1-O ,  2-C ) :   1.1207 B(  2-C ,  3-C ) :   0.9985
B(  2-C ,  4-C ) :   0.9102 B(  2-C , 10-H ) :   0.9342 B(  3-C ,  4-C ) :   0.9779
B(  3-C , 11-H ) :   0.9325 B(  3-C , 12-H ) :   0.9335 B(  4-C ,  5-C ) :   1.1264
B(  4-C , 13-H ) :   0.9080 B(  5-C ,  6-N ) :   3.0163

FINAL SINGLE POINT ENERGY      -324.015149143097

DIPOLE MOMENT
-------------
                                X             Y             Z
Electronic contribution:      2.32067       4.45295      -0.23917
Nuclear contribution   :     -3.30354      -5.38162       0.28437
                        -----------------------------------------
Total Dipole Moment    :     -0.98287      -0.92868       0.04520
                        -----------------------------------------
Magnitude (a.u.)       :      1.35297
Magnitude (Debye)      :      3.43897

                             ****ORCA TERMINATED NORMALLY****
TOTAL RUN TIME: 0 days 0 hours 0 minutes 5 seconds 694 msec
