                         Program Version 3.0.3 - RELEASE   -
|  1> ! RI PBE def2-SVP def2-SVP/J NBO PAL2
|  2> % maxcore 2000
|  3> % output
|  4>     # printlevel mini
|  5>     print[ P_Basis ] 0
|  6>     print[ P_SCFInfo ] 1
|  7>     print[ P_SCFIterInfo ] 1
|  8>     print[ P_OrbEn ] 0
|  9>     print[ P_Cartesian ] 0
| 10> end
| 11> *xyz 0 1
| 12>  C        1.0881300000    -0.0584830000     0.2099580000
| 13>  O        2.4821560000    -0.0449480000     0.0654160000
| 14>  C        2.9190400000    -0.5893920000    -1.1427140000
| 15>  C        4.4332640000    -0.6080360000    -1.3379060000
| 16>  C        4.2712470000    -1.9557070000    -2.0654480000
| 17>  C        2.9134420000    -2.1277180000    -1.3646540000
| 18>  N        1.8870490000    -2.8354980000    -2.0820200000
| 19>  H        0.8484580000     0.4640580000     1.1365290000
| 20>  H        0.6896700000    -1.0796580000     0.2732770000
| 21>  H        0.5921270000     0.4550810000    -0.6260330000
| 22>  H        2.4123360000    -0.0971550000    -1.9911060000
| 23>  H        4.9272000000    -0.7305470000    -0.3720630000
| 24>  H        4.8904030000     0.2237250000    -1.8728870000
| 25>  H        5.0242350000    -2.7271410000    -1.9075680000
| 26>  H        4.1328310000    -1.8174670000    -3.1413020000
| 27>  H        3.0613560000    -2.6078540000    -0.3914590000
| 28>  H        1.6597050000    -2.3669280000    -2.9506970000
| 29>  H        1.0352310000    -2.9174230000    -1.5425350000
| 30> *
| 31>
| 32>                          ****END OF INPUT****
 Total Charge           Charge          ....    0
 Multiplicity           Mult            ....    1
 Number of Electrons    NEL             ....   56
 Basis Dimension        Dim             ....  153

MULLIKEN ATOMIC CHARGES
-----------------------
   0 C :    0.159542
   1 O :   -0.308674
   2 C :    0.098747
   3 C :    0.029785
   4 C :    0.023744
   5 C :   -0.104302
   6 N :   -0.126050
   7 H :    0.031272
   8 H :   -0.001853
   9 H :   -0.000260
  10 H :   -0.039852
  11 H :    0.021978
  12 H :    0.014367
  13 H :    0.020364
  14 H :    0.009223
  15 H :    0.002861
  16 H :    0.082531
  17 H :    0.086576
Sum of atomic charges:    0.0000000

LOEWDIN ATOMIC CHARGES
----------------------
   0 C :    0.051432
   1 O :   -0.137745
   2 C :    0.024840
   3 C :   -0.037455
   4 C :   -0.034956
   5 C :   -0.019053
   6 N :   -0.089670
   7 H :    0.023291
   8 H :    0.000334
   9 H :    0.004068
  10 H :   -0.003755
  11 H :    0.031067
  12 H :    0.019082
  13 H :    0.021203
  14 H :    0.023578
  15 H :    0.025239
  16 H :    0.048361
  17 H :    0.050139

  Mayer bond orders larger than 0.1
B(  0-C ,  1-O ) :   1.0158 B(  0-C ,  7-H ) :   0.9759 B(  0-C ,  8-H ) :   0.9554
B(  0-C ,  9-H ) :   0.9504 B(  1-O ,  2-C ) :   1.0876 B(  2-C ,  3-C ) :   1.0815
B(  2-C ,  5-C ) :   0.9991 B(  2-C , 10-H ) :   0.8761 B(  3-C ,  4-C ) :   1.1040
B(  3-C , 11-H ) :   0.9137 B(  3-C , 12-H ) :   0.9280 B(  4-C ,  5-C ) :   1.0780
B(  4-C , 13-H ) :   0.9235 B(  4-C , 14-H ) :   0.9202 B(  5-C ,  6-N ) :   1.1553
B(  5-C , 15-H ) :   0.8771 B(  6-N , 16-H ) :   0.9550 B(  6-N , 17-H ) :   0.9697

FINAL SINGLE POINT ENERGY      -326.425287410576

DIPOLE MOMENT
-------------
                                X             Y             Z
Electronic contribution:      0.87893       0.50755       1.13345
Nuclear contribution   :     -1.45283      -0.35148      -1.31544
                        -----------------------------------------
Total Dipole Moment    :     -0.57390       0.15608      -0.18199
                        -----------------------------------------
Magnitude (a.u.)       :      0.62196
Magnitude (Debye)      :      1.58090

                             ****ORCA TERMINATED NORMALLY****
TOTAL RUN TIME: 0 days 0 hours 0 minutes 7 seconds 682 msec
