                         Program Version 3.0.3 - RELEASE   -
|  1> ! RI PBE def2-SVP def2-SVP/J NBO PAL2
|  2> % maxcore 2000
|  3> % output
|  4>     # printlevel mini
|  5>     print[ P_Basis ] 0
|  6>     print[ P_SCFInfo ] 1
|  7>     print[ P_SCFIterInfo ] 1
|  8>     print[ P_OrbEn ] 0
|  9>     print[ P_Cartesian ] 0
| 10> end
| 11> *xyz 0 1
| 12>  C        2.4080760000     0.3913910000     0.8883350000
| 13>  O        3.4395280000     0.7166570000    -0.0205170000
| 14>  C        2.9812150000     1.1161950000    -1.2796500000
| 15>  C        2.1933940000     0.0897650000    -2.0421540000
| 16>  C        3.9442560000     1.9931270000    -2.0127450000
| 17>  C        2.6700500000     2.5771480000    -1.4334390000
| 18>  N        2.6745450000     3.4141220000    -0.2714540000
| 19>  H        2.8738850000     0.2893480000     1.8690870000
| 20>  H        1.9260190000    -0.5591770000     0.6337660000
| 21>  H        1.6475340000     1.1789110000     0.9300100000
| 22>  H        1.2516910000    -0.1567800000    -1.5454470000
| 23>  H        2.7769860000    -0.8278640000    -2.1575000000
| 24>  H        1.9507380000     0.4666020000    -3.0371040000
| 25>  H        4.0429240000     1.8680290000    -3.0848780000
| 26>  H        4.8604320000     2.2346080000    -1.4863650000
| 27>  H        1.8829290000     2.8251910000    -2.1393950000
| 28>  H        3.0501130000     4.3284730000    -0.4931060000
| 29>  H        3.2798030000     3.0050530000     0.4313670000
| 30> *
| 31>
| 32>                          ****END OF INPUT****
 Total Charge           Charge          ....    0
 Multiplicity           Mult            ....    1
 Number of Electrons    NEL             ....   56
 Basis Dimension        Dim             ....  153

MULLIKEN ATOMIC CHARGES
-----------------------
   0 C :    0.150699
   1 O :   -0.318558
   2 C :   -0.100385
   3 C :    0.108966
   4 C :    0.026558
   5 C :   -0.085836
   6 N :   -0.116519
   7 H :    0.026710
   8 H :    0.009582
   9 H :    0.025538
  10 H :    0.017416
  11 H :    0.023800
  12 H :    0.004128
  13 H :    0.020771
  14 H :    0.016070
  15 H :    0.015188
  16 H :    0.094785
  17 H :    0.081087
Sum of atomic charges:    0.0000000

LOEWDIN ATOMIC CHARGES
----------------------
   0 C :    0.052268
   1 O :   -0.129047
   2 C :    0.001458
   3 C :   -0.058151
   4 C :   -0.069534
   5 C :   -0.017997
   6 N :   -0.084028
   7 H :    0.022181
   8 H :    0.006209
   9 H :    0.012068
  10 H :    0.027063
  11 H :    0.031211
  12 H :    0.032562
  13 H :    0.023865
  14 H :    0.027393
  15 H :    0.018316
  16 H :    0.056664
  17 H :    0.047502

  Mayer bond orders larger than 0.1
B(  0-C ,  1-O ) :   0.9826 B(  0-C ,  7-H ) :   0.9751 B(  0-C ,  8-H ) :   0.9590
B(  0-C ,  9-H ) :   0.9535 B(  1-O ,  2-C ) :   1.0830 B(  2-C ,  3-C ) :   1.0903
B(  2-C ,  4-C ) :   0.9762 B(  2-C ,  5-C ) :   0.8982 B(  3-C , 10-H ) :   0.9463
B(  3-C , 11-H ) :   0.9478 B(  3-C , 12-H ) :   0.9310 B(  4-C ,  5-C ) :   0.9420
B(  4-C , 13-H ) :   0.9298 B(  4-C , 14-H ) :   0.9202 B(  5-C ,  6-N ) :   1.1629
B(  5-C , 15-H ) :   0.9363 B(  6-N , 16-H ) :   0.9618 B(  6-N , 17-H ) :   0.9407

FINAL SINGLE POINT ENERGY      -326.419456091558

DIPOLE MOMENT
-------------
                                X             Y             Z
Electronic contribution:      2.10273       1.38814       0.67508
Nuclear contribution   :     -2.14916      -1.36772      -0.77792
                        -----------------------------------------
Total Dipole Moment    :     -0.04642       0.02042      -0.10284
                        -----------------------------------------
Magnitude (a.u.)       :      0.11467
Magnitude (Debye)      :      0.29146

                             ****ORCA TERMINATED NORMALLY****
TOTAL RUN TIME: 0 days 0 hours 0 minutes 8 seconds 45 msec
