                         Program Version 3.0.3 - RELEASE   -
|  1> ! RI PBE def2-SVP def2-SVP/J NBO PAL2
|  2> % maxcore 2000
|  3> % output
|  4>     # printlevel mini
|  5>     print[ P_Basis ] 0
|  6>     print[ P_SCFInfo ] 1
|  7>     print[ P_SCFIterInfo ] 1
|  8>     print[ P_OrbEn ] 0
|  9>     print[ P_Cartesian ] 0
| 10> end
| 11> *xyz 0 1
| 12>  C        1.3729640000     0.6729380000    -1.0563450000
| 13>  O        2.0625700000    -0.1561950000    -0.1561420000
| 14>  C        2.8117130000    -1.1269690000    -0.8002510000
| 15>  C        3.0620120000    -2.4041940000    -0.0609430000
| 16>  C        2.5263130000    -2.6235420000     1.3252800000
| 17>  C        2.1544730000    -2.4062360000    -1.2550680000
| 18>  N        2.5220700000    -3.1210530000    -2.4409130000
| 19>  H        0.8098730000     1.3974980000    -0.4674770000
| 20>  H        0.6773480000     0.0976760000    -1.6804540000
| 21>  H        2.0663290000     1.2132760000    -1.7151960000
| 22>  H        3.6195730000    -0.7383720000    -1.4238640000
| 23>  H        4.0458530000    -2.8326240000    -0.2390470000
| 24>  H        3.2164360000    -2.2347500000     2.0783790000
| 25>  H        1.5724500000    -2.1130480000     1.4605990000
| 26>  H        2.3781890000    -3.6889200000     1.5189060000
| 27>  H        1.0969640000    -2.4733020000    -1.0089340000
| 28>  H        3.5051430000    -3.3559020000    -2.4408060000
| 29>  H        2.3317250000    -2.5830780000    -3.2772140000
| 30> *
| 31>
| 32>                          ****END OF INPUT****
 Total Charge           Charge          ....    0
 Multiplicity           Mult            ....    1
 Number of Electrons    NEL             ....   56
 Basis Dimension        Dim             ....  153

MULLIKEN ATOMIC CHARGES
-----------------------
   0 C :    0.168463
   1 O :   -0.304809
   2 C :    0.114329
   3 C :   -0.136236
   4 C :    0.081719
   5 C :   -0.087873
   6 N :   -0.115186
   7 H :    0.030844
   8 H :    0.002178
   9 H :    0.000480
  10 H :   -0.017918
  11 H :    0.011959
  12 H :    0.024487
  13 H :    0.016613
  14 H :    0.021202
  15 H :    0.021244
  16 H :    0.078625
  17 H :    0.089880
Sum of atomic charges:   -0.0000000

LOEWDIN ATOMIC CHARGES
----------------------
   0 C :    0.054485
   1 O :   -0.125596
   2 C :    0.014614
   3 C :   -0.051046
   4 C :   -0.053044
   5 C :   -0.025721
   6 N :   -0.084743
   7 H :    0.022061
   8 H :    0.004706
   9 H :    0.005246
  10 H :   -0.000507
  11 H :    0.024996
  12 H :    0.030646
  13 H :    0.029134
  14 H :    0.029817
  15 H :    0.021587
  16 H :    0.050471
  17 H :    0.052893

  Mayer bond orders larger than 0.1
B(  0-C ,  1-O ) :   1.0055 B(  0-C ,  7-H ) :   0.9767 B(  0-C ,  8-H ) :   0.9555
B(  0-C ,  9-H ) :   0.9554 B(  1-O ,  2-C ) :   1.0850 B(  2-C ,  3-C ) :   0.9294
B(  2-C ,  5-C ) :   0.9066 B(  2-C , 10-H ) :   0.9222 B(  3-C ,  4-C ) :   1.1158
B(  3-C ,  5-C ) :   0.9409 B(  3-C , 11-H ) :   0.9220 B(  4-C , 12-H ) :   0.9581
B(  4-C , 13-H ) :   0.9451 B(  4-C , 14-H ) :   0.9588 B(  5-C ,  6-N ) :   1.1493
B(  5-C , 15-H ) :   0.9311 B(  6-N , 16-H ) :   0.9619 B(  6-N , 17-H ) :   0.9702

FINAL SINGLE POINT ENERGY      -326.416400436016

DIPOLE MOMENT
-------------
                                X             Y             Z
Electronic contribution:      0.67235       0.36605      -0.46570
Nuclear contribution   :     -0.44022      -0.06704      -0.00582
                        -----------------------------------------
Total Dipole Moment    :      0.23213       0.29901      -0.47152
                        -----------------------------------------
Magnitude (a.u.)       :      0.60466
Magnitude (Debye)      :      1.53693

                             ****ORCA TERMINATED NORMALLY****
TOTAL RUN TIME: 0 days 0 hours 0 minutes 7 seconds 869 msec
