                         Program Version 3.0.3 - RELEASE   -
|  1> ! RI PBE def2-SVP def2-SVP/J NBO PAL2
|  2> % maxcore 2000
|  3> % output
|  4>     # printlevel mini
|  5>     print[ P_Basis ] 0
|  6>     print[ P_SCFInfo ] 1
|  7>     print[ P_SCFIterInfo ] 1
|  8>     print[ P_OrbEn ] 0
|  9>     print[ P_Cartesian ] 0
| 10> end
| 11> *xyz 0 1
| 12>  C        2.3254170000    -1.4950650000     0.2819050000
| 13>  O        2.2720890000    -0.0920050000     0.2647560000
| 14>  C        2.9701360000     0.5625520000     1.2128900000
| 15>  C        3.0638110000     1.9174610000     1.3920820000
| 16>  C        3.9094610000     2.1176940000     2.5157950000
| 17>  C        4.2984480000     0.8933080000     2.9785650000
| 18>  N        3.7158280000    -0.0582860000     2.1709900000
| 19>  H        1.7082400000    -1.8384280000    -0.5463230000
| 20>  H        1.9194530000    -1.9049950000     1.2153410000
| 21>  H        3.3481890000    -1.8639610000     0.1334380000
| 22>  H        2.5793510000     2.6633180000     0.7836900000
| 23>  H        4.1985330000     3.0681500000     2.9362400000
| 24>  H        4.9315390000     0.6081210000     3.8020730000
| 25>  H        3.8268050000    -1.0489640000     2.2765480000
| 26> *
| 27>
| 28>                          ****END OF INPUT****
 Total Charge           Charge          ....    0
 Multiplicity           Mult            ....    1
 Number of Electrons    NEL             ....   52
 Basis Dimension        Dim             ....  133

MULLIKEN ATOMIC CHARGES
-----------------------
   0 C :    0.126028
   1 O :   -0.254134
   2 C :    0.183390
   3 C :   -0.102739
   4 C :   -0.014693
   5 C :    0.030259
   6 N :   -0.094012
   7 H :    0.048252
   8 H :    0.021907
   9 H :    0.021602
  10 H :   -0.032349
  11 H :   -0.023471
  12 H :   -0.016097
  13 H :    0.106056
Sum of atomic charges:   -0.0000000

LOEWDIN ATOMIC CHARGES
----------------------
   0 C :    0.055776
   1 O :   -0.073347
   2 C :    0.016783
   3 C :   -0.124572
   4 C :   -0.075595
   5 C :   -0.060530
   6 N :    0.070520
   7 H :    0.033356
   8 H :    0.010119
   9 H :    0.010055
  10 H :    0.024381
  11 H :    0.022428
  12 H :    0.014261
  13 H :    0.076362

  Mayer bond orders larger than 0.1
B(  0-C ,  1-O ) :   0.9919 B(  0-C ,  7-H ) :   0.9753 B(  0-C ,  8-H ) :   0.9551
B(  0-C ,  9-H ) :   0.9554 B(  1-O ,  2-C ) :   1.1480 B(  2-C ,  3-C ) :   1.4496
B(  2-C ,  6-N ) :   1.1915 B(  3-C ,  4-C ) :   1.2666 B(  3-C , 10-H ) :   1.0164
B(  4-C ,  5-C ) :   1.5017 B(  4-C , 11-H ) :   1.0050 B(  5-C ,  6-N ) :   1.1521
B(  5-C , 12-H ) :   0.9903 B(  6-N , 13-H ) :   0.9336

FINAL SINGLE POINT ENERGY      -324.056031300347

DIPOLE MOMENT
-------------
                                X             Y             Z
Electronic contribution:     -0.03326       2.09339       0.03636
Nuclear contribution   :      0.14137      -3.37754       0.05833
                        -----------------------------------------
Total Dipole Moment    :      0.10811      -1.28415       0.09469
                        -----------------------------------------
Magnitude (a.u.)       :      1.29217
Magnitude (Debye)      :      3.28443

                             ****ORCA TERMINATED NORMALLY****
TOTAL RUN TIME: 0 days 0 hours 0 minutes 6 seconds 546 msec
