                         Program Version 3.0.3 - RELEASE   -
|  1> ! RI PBE def2-SVP def2-SVP/J NBO PAL2
|  2> % maxcore 2000
|  3> % output
|  4>     # printlevel mini
|  5>     print[ P_Basis ] 0
|  6>     print[ P_SCFInfo ] 1
|  7>     print[ P_SCFIterInfo ] 1
|  8>     print[ P_OrbEn ] 0
|  9>     print[ P_Cartesian ] 0
| 10> end
| 11> *xyz 0 1
| 12>  C        2.4386750000    -0.9577310000     0.6452860000
| 13>  O        2.0730270000     0.2417560000     0.0215630000
| 14>  C        3.0894630000     1.2187760000     0.0612510000
| 15>  C        2.6695150000     2.4181830000    -0.7966570000
| 16>  C        2.3901420000     3.5253130000     0.2101690000
| 17>  N        3.3804340000     3.2439980000     1.2365260000
| 18>  C        3.2962380000     1.8126950000     1.4701040000
| 19>  H        1.6177560000    -1.6621290000     0.5074530000
| 20>  H        2.6132040000    -0.8311160000     1.7222540000
| 21>  H        3.3491630000    -1.3799650000     0.1959630000
| 22>  H        4.0200850000     0.7711950000    -0.3136240000
| 23>  H        1.8082520000     2.1576190000    -1.4118690000
| 24>  H        3.4893500000     2.7123030000    -1.4539460000
| 25>  H        1.3534600000     3.4460930000     0.5785850000
| 26>  H        2.5279080000     4.5270780000    -0.2027420000
| 27>  H        3.2380540000     3.7814470000     2.0813350000
| 28>  H        2.4206700000     1.5220760000     2.0751930000
| 29>  H        4.1962150000     1.4465300000     1.9701660000
| 30> *
| 31>
| 32>                          ****END OF INPUT****
 Total Charge           Charge          ....    0
 Multiplicity           Mult            ....    1
 Number of Electrons    NEL             ....   56
 Basis Dimension        Dim             ....  153

MULLIKEN ATOMIC CHARGES
-----------------------
   0 C :    0.141076
   1 O :   -0.331461
   2 C :   -0.014446
   3 C :    0.077780
   4 C :    0.088689
   5 N :   -0.282059
   6 C :    0.164471
   7 H :    0.035568
   8 H :    0.010835
   9 H :    0.001436
  10 H :   -0.014787
  11 H :    0.018683
  12 H :    0.012494
  13 H :   -0.009516
  14 H :    0.006935
  15 H :    0.098169
  16 H :   -0.011088
  17 H :    0.007220
Sum of atomic charges:    0.0000000

LOEWDIN ATOMIC CHARGES
----------------------
   0 C :    0.045715
   1 O :   -0.142928
   2 C :    0.049965
   3 C :   -0.045392
   4 C :    0.014438
   5 N :   -0.105444
   6 C :   -0.004273
   7 H :    0.023505
   8 H :    0.003409
   9 H :    0.004727
  10 H :    0.004964
  11 H :    0.031522
  12 H :    0.030569
  13 H :   -0.000998
  14 H :    0.017260
  15 H :    0.053385
  16 H :    0.003481
  17 H :    0.016095

  Mayer bond orders larger than 0.1
B(  0-C ,  1-O ) :   1.0208 B(  0-C ,  7-H ) :   0.9767 B(  0-C ,  8-H ) :   0.9524
B(  0-C ,  9-H ) :   0.9504 B(  1-O ,  2-C ) :   1.0377 B(  2-C ,  3-C ) :   1.0913
B(  2-C ,  6-C ) :   1.0571 B(  2-C , 10-H ) :   0.8975 B(  3-C ,  4-C ) :   1.1334
B(  3-C , 11-H ) :   0.9182 B(  3-C , 12-H ) :   0.9118 B(  4-C ,  5-N ) :   1.0362
B(  4-C , 13-H ) :   0.9120 B(  4-C , 14-H ) :   0.9399 B(  5-N ,  6-C ) :   1.0828
B(  5-N , 15-H ) :   0.9421 B(  6-C , 16-H ) :   0.8949 B(  6-C , 17-H ) :   0.9292

FINAL SINGLE POINT ENERGY      -326.439734444557

DIPOLE MOMENT
-------------
                                X             Y             Z
Electronic contribution:     -0.29037       1.02045      -0.68964
Nuclear contribution   :      0.35417      -1.09083       1.04977
                        -----------------------------------------
Total Dipole Moment    :      0.06380      -0.07039       0.36013
                        -----------------------------------------
Magnitude (a.u.)       :      0.37245
Magnitude (Debye)      :      0.94668

                             ****ORCA TERMINATED NORMALLY****
TOTAL RUN TIME: 0 days 0 hours 0 minutes 7 seconds 744 msec
