                         Program Version 3.0.3 - RELEASE   -
|  1> ! RI PBE def2-SVP def2-SVP/J NBO PAL2
|  2> % maxcore 2000
|  3> % output
|  4>     # printlevel mini
|  5>     print[ P_Basis ] 0
|  6>     print[ P_SCFInfo ] 1
|  7>     print[ P_SCFIterInfo ] 1
|  8>     print[ P_OrbEn ] 0
|  9>     print[ P_Cartesian ] 0
| 10> end
| 11> *xyz 0 1
| 12>  C        1.8229250000    -0.0632580000     1.0695190000
| 13>  O        3.0919760000     0.1949260000     0.5285610000
| 14>  C        3.0979350000     1.0518940000    -0.5829100000
| 15>  C        2.3751630000     0.4822360000    -1.7845140000
| 16>  C        2.7700640000     2.5423130000    -0.3131830000
| 17>  N        3.9681170000     2.8998400000    -1.0884790000
| 18>  C        4.5156620000     1.5456770000    -0.9053280000
| 19>  H        1.9787620000    -0.6092690000     2.0002600000
| 20>  H        1.2015640000    -0.6767040000     0.4064820000
| 21>  H        1.2809800000     0.8650380000     1.2957340000
| 22>  H        1.3018620000     0.3837650000    -1.6057440000
| 23>  H        2.7792880000    -0.5012410000    -2.0373740000
| 24>  H        2.5119590000     1.1485430000    -2.6383010000
| 25>  H        2.8415180000     2.7606620000     0.7600690000
| 26>  H        1.8330310000     2.9453200000    -0.7087720000
| 27>  H        4.5265170000     3.6500880000    -0.7044710000
| 28>  H        5.1595980000     1.4265080000    -0.0263300000
| 29>  H        5.0099570000     1.1246610000    -1.7854170000
| 30> *
| 31>
| 32>                          ****END OF INPUT****
 Total Charge           Charge          ....    0
 Multiplicity           Mult            ....    1
 Number of Electrons    NEL             ....   56
 Basis Dimension        Dim             ....  153

MULLIKEN ATOMIC CHARGES
-----------------------
   0 C :    0.152119
   1 O :   -0.310129
   2 C :   -0.267948
   3 C :    0.080836
   4 C :    0.205427
   5 N :   -0.277668
   6 C :    0.206655
   7 H :    0.031587
   8 H :    0.011503
   9 H :    0.004219
  10 H :    0.019538
  11 H :    0.022134
  12 H :    0.022337
  13 H :   -0.005033
  14 H :    0.000785
  15 H :    0.095403
  16 H :    0.003586
  17 H :    0.004649
Sum of atomic charges:    0.0000000

LOEWDIN ATOMIC CHARGES
----------------------
   0 C :    0.049828
   1 O :   -0.134204
   2 C :    0.007983
   3 C :   -0.063784
   4 C :    0.016304
   5 N :   -0.111429
   6 C :    0.029486
   7 H :    0.023848
   8 H :    0.005182
   9 H :    0.005630
  10 H :    0.024452
  11 H :    0.029571
  12 H :    0.036926
  13 H :    0.006905
  14 H :    0.006481
  15 H :    0.047947
  16 H :    0.009797
  17 H :    0.009076

  Mayer bond orders larger than 0.1
B(  0-C ,  1-O ) :   1.0120 B(  0-C ,  7-H ) :   0.9755 B(  0-C ,  8-H ) :   0.9557
B(  0-C ,  9-H ) :   0.9503 B(  1-O ,  2-C ) :   1.0519 B(  2-C ,  3-C ) :   1.0418
B(  2-C ,  4-C ) :   1.0188 B(  2-C ,  6-C ) :   1.0108 B(  3-C , 10-H ) :   0.9483
B(  3-C , 11-H ) :   0.9485 B(  3-C , 12-H ) :   0.9351 B(  4-C ,  5-N ) :   1.0517
B(  4-C , 13-H ) :   0.9049 B(  4-C , 14-H ) :   0.9326 B(  5-N ,  6-C ) :   1.0357
B(  5-N , 15-H ) :   0.9398 B(  6-C , 16-H ) :   0.9114 B(  6-C , 17-H ) :   0.9334

FINAL SINGLE POINT ENERGY      -326.416193859127

DIPOLE MOMENT
-------------
                                X             Y             Z
Electronic contribution:      2.89790       0.92345       0.70445
Nuclear contribution   :     -3.16687      -0.82410      -0.42655
                        -----------------------------------------
Total Dipole Moment    :     -0.26897       0.09934       0.27790
                        -----------------------------------------
Magnitude (a.u.)       :      0.39930
Magnitude (Debye)      :      1.01495

                             ****ORCA TERMINATED NORMALLY****
TOTAL RUN TIME: 0 days 0 hours 0 minutes 8 seconds 75 msec
