                         Program Version 3.0.3 - RELEASE   -
|  1> ! RI PBE def2-SVP def2-SVP/J NBO PAL2
|  2> % maxcore 2000
|  3> % output
|  4>     # printlevel mini
|  5>     print[ P_Basis ] 0
|  6>     print[ P_SCFInfo ] 1
|  7>     print[ P_SCFIterInfo ] 1
|  8>     print[ P_OrbEn ] 0
|  9>     print[ P_Cartesian ] 0
| 10> end
| 11> *xyz 0 1
| 12>  C        2.9470660000     0.5112000000    -0.9009190000
| 13>  O        2.2212110000    -0.1263010000     0.1149460000
| 14>  C        2.9149420000    -1.1954010000     0.6843460000
| 15>  C        2.1375270000    -1.9495440000     1.7638540000
| 16>  C        2.6738080000    -3.2775610000     1.1918700000
| 17>  N        3.7571360000    -3.8243800000     1.9828340000
| 18>  C        3.0375720000    -2.5127240000    -0.1120790000
| 19>  H        2.3375000000     1.3345420000    -1.2739180000
| 20>  H        3.1680270000    -0.1707260000    -1.7329390000
| 21>  H        3.8969540000     0.9151980000    -0.5225860000
| 22>  H        3.8967370000    -0.8502100000     1.0433260000
| 23>  H        1.0654310000    -1.8373720000     1.5937820000
| 24>  H        2.3624590000    -1.7362200000     2.8098170000
| 25>  H        1.9267170000    -4.0634210000     1.0658610000
| 26>  H        4.4698950000    -3.1256980000     2.1584050000
| 27>  H        4.2067380000    -4.5887160000     1.4926820000
| 28>  H        2.2381360000    -2.5779700000    -0.8549190000
| 29>  H        3.9933640000    -2.7557970000    -0.5814440000
| 30> *
| 31>
| 32>                          ****END OF INPUT****
 Total Charge           Charge          ....    0
 Multiplicity           Mult            ....    1
 Number of Electrons    NEL             ....   56
 Basis Dimension        Dim             ....  153

MULLIKEN ATOMIC CHARGES
-----------------------
   0 C :    0.160589
   1 O :   -0.311294
   2 C :   -0.017865
   3 C :    0.129279
   4 C :   -0.171626
   5 N :   -0.125604
   6 C :    0.130210
   7 H :    0.031849
   8 H :    0.005029
   9 H :   -0.002935
  10 H :   -0.021455
  11 H :    0.018455
  12 H :    0.011178
  13 H :    0.007881
  14 H :    0.075203
  15 H :    0.088149
  16 H :    0.000997
  17 H :   -0.008039
Sum of atomic charges:    0.0000000

LOEWDIN ATOMIC CHARGES
----------------------
   0 C :    0.051447
   1 O :   -0.137054
   2 C :    0.043685
   3 C :   -0.037249
   4 C :    0.006219
   5 N :   -0.090750
   6 C :   -0.071971
   7 H :    0.022763
   8 H :    0.004627
   9 H :    0.003739
  10 H :   -0.001280
  11 H :    0.035001
  12 H :    0.020066
  13 H :    0.015041
  14 H :    0.046471
  15 H :    0.051633
  16 H :    0.028249
  17 H :    0.009362

  Mayer bond orders larger than 0.1
B(  0-C ,  1-O ) :   1.0152 B(  0-C ,  7-H ) :   0.9765 B(  0-C ,  8-H ) :   0.9546
B(  0-C ,  9-H ) :   0.9512 B(  1-O ,  2-C ) :   1.0754 B(  2-C ,  3-C ) :   1.0749
B(  2-C ,  6-C ) :   1.0731 B(  2-C , 10-H ) :   0.9024 B(  3-C ,  4-C ) :   1.0710
B(  3-C , 11-H ) :   0.8991 B(  3-C , 12-H ) :   0.9207 B(  4-C ,  5-N ) :   1.1265
B(  4-C ,  6-C ) :   1.0476 B(  4-C , 13-H ) :   0.9112 B(  5-N , 14-H ) :   0.9648
B(  5-N , 15-H ) :   0.9658 B(  6-C , 16-H ) :   0.8755 B(  6-C , 17-H ) :   0.9216

FINAL SINGLE POINT ENERGY      -326.421636908251

DIPOLE MOMENT
-------------
                                X             Y             Z
Electronic contribution:     -1.63360       0.23101       1.38417
Nuclear contribution   :      2.23437      -0.24533      -1.89921
                        -----------------------------------------
Total Dipole Moment    :      0.60077      -0.01432      -0.51504
                        -----------------------------------------
Magnitude (a.u.)       :      0.79145
Magnitude (Debye)      :      2.01172

                             ****ORCA TERMINATED NORMALLY****
TOTAL RUN TIME: 0 days 0 hours 0 minutes 7 seconds 745 msec
