                         Program Version 3.0.3 - RELEASE   -
|  1> ! RI PBE def2-SVP def2-SVP/J NBO PAL2
|  2> % maxcore 2000
|  3> % output
|  4>     # printlevel mini
|  5>     print[ P_Basis ] 0
|  6>     print[ P_SCFInfo ] 1
|  7>     print[ P_SCFIterInfo ] 1
|  8>     print[ P_OrbEn ] 0
|  9>     print[ P_Cartesian ] 0
| 10> end
| 11> *xyz 0 1
| 12>  C        1.1934000000    -0.0724420000     0.5061340000
| 13>  O        2.5742120000    -0.0622370000     0.2527070000
| 14>  C        3.1482290000    -1.2786360000     0.0998930000
| 15>  C        4.4889020000    -1.4486150000    -0.1526110000
| 16>  N        4.7081100000    -2.7966800000    -0.2456000000
| 17>  C        3.5506900000    -3.4765830000    -0.0599620000
| 18>  C        2.5468860000    -2.5615680000     0.1599500000
| 19>  H        0.8857900000     0.9679940000     0.6033300000
| 20>  H        0.9592640000    -0.6045410000     1.4359270000
| 21>  H        0.6369790000    -0.5360170000    -0.3172500000
| 22>  H        5.2764490000    -0.7237870000    -0.2686680000
| 23>  H        5.6002590000    -3.2170000000    -0.4256440000
| 24>  H        3.5171330000    -4.5532660000    -0.0959450000
| 25>  H        1.5109890000    -2.7972120000     0.3407190000
| 26> *
| 27>
| 28>                          ****END OF INPUT****
 Total Charge           Charge          ....    0
 Multiplicity           Mult            ....    1
 Number of Electrons    NEL             ....   52
 Basis Dimension        Dim             ....  133

MULLIKEN ATOMIC CHARGES
-----------------------
   0 C :    0.147586
   1 O :   -0.277543
   2 C :    0.155816
   3 C :   -0.026658
   4 N :   -0.047484
   5 C :    0.039791
   6 C :   -0.120784
   7 H :    0.031518
   8 H :    0.018684
   9 H :    0.022183
  10 H :   -0.019269
  11 H :    0.113792
  12 H :   -0.006550
  13 H :   -0.031081
Sum of atomic charges:   -0.0000000

LOEWDIN ATOMIC CHARGES
----------------------
   0 C :    0.060139
   1 O :   -0.084893
   2 C :   -0.018347
   3 C :   -0.079118
   4 N :    0.107363
   5 C :   -0.043100
   6 C :   -0.129599
   7 H :    0.024386
   8 H :    0.011258
   9 H :    0.011860
  10 H :    0.018213
  11 H :    0.082440
  12 H :    0.017182
  13 H :    0.022216

  Mayer bond orders larger than 0.1
B(  0-C ,  1-O ) :   0.9970 B(  0-C ,  7-H ) :   0.9751 B(  0-C ,  8-H ) :   0.9583
B(  0-C ,  9-H ) :   0.9589 B(  1-O ,  2-C ) :   1.1341 B(  2-C ,  3-C ) :   1.4307
B(  2-C ,  6-C ) :   1.2859 B(  3-C ,  4-N ) :   1.1888 B(  3-C ,  5-C ) :   0.1187
B(  3-C , 10-H ) :   0.9934 B(  4-N ,  5-C ) :   1.2608 B(  4-N , 11-H ) :   0.9441
B(  5-C ,  6-C ) :   1.4011 B(  5-C , 12-H ) :   0.9834 B(  6-C , 13-H ) :   1.0106

FINAL SINGLE POINT ENERGY      -324.057807920662

DIPOLE MOMENT
-------------
                                X             Y             Z
Electronic contribution:      3.62418      -0.44130      -0.68342
Nuclear contribution   :     -3.37204      -0.06257       0.61742
                        -----------------------------------------
Total Dipole Moment    :      0.25214      -0.50387      -0.06600
                        -----------------------------------------
Magnitude (a.u.)       :      0.56729
Magnitude (Debye)      :      1.44193

                             ****ORCA TERMINATED NORMALLY****
TOTAL RUN TIME: 0 days 0 hours 0 minutes 5 seconds 797 msec
