                         Program Version 3.0.3 - RELEASE   -
|  1> ! RI PBE def2-SVP def2-SVP/J NBO PAL2
|  2> % maxcore 2000
|  3> % output
|  4>     # printlevel mini
|  5>     print[ P_Basis ] 0
|  6>     print[ P_SCFInfo ] 1
|  7>     print[ P_SCFIterInfo ] 1
|  8>     print[ P_OrbEn ] 0
|  9>     print[ P_Cartesian ] 0
| 10> end
| 11> *xyz 0 1
| 12>  C        3.1155300000    -1.1285590000     0.4668390000
| 13>  O        2.7328080000     0.1849670000     0.1392470000
| 14>  C        3.2549690000     0.6721350000    -0.9955950000
| 15>  N        2.9325500000     1.9002050000    -1.3550630000
| 16>  N        3.5984640000     2.0868990000    -2.5012640000
| 17>  C        4.3265000000     1.0250520000    -2.8760980000
| 18>  C        4.1353750000     0.0592940000    -1.9145120000
| 19>  H        2.6138830000    -1.3722790000     1.4017240000
| 20>  H        4.1994450000    -1.2059630000     0.6088790000
| 21>  H        2.8036330000    -1.8407320000    -0.3055440000
| 22>  H        3.5077180000     2.9676750000    -2.9736380000
| 23>  H        4.9178240000     1.0242980000    -3.7782660000
| 24>  H        4.5664110000    -0.9265930000    -1.8887000000
| 25> *
| 26>
| 27>                          ****END OF INPUT****
 Total Charge           Charge          ....    0
 Multiplicity           Mult            ....    1
 Number of Electrons    NEL             ....   52
 Basis Dimension        Dim             ....  128

MULLIKEN ATOMIC CHARGES
-----------------------
   0 C :    0.149868
   1 O :   -0.247025
   2 C :    0.137177
   3 N :   -0.130369
   4 N :   -0.020966
   5 C :    0.109953
   6 C :   -0.187902
   7 H :    0.037669
   8 H :    0.022937
   9 H :    0.023319
  10 H :    0.127533
  11 H :   -0.005440
  12 H :   -0.016753
Sum of atomic charges:   -0.0000000

LOEWDIN ATOMIC CHARGES
----------------------
   0 C :    0.063779
   1 O :   -0.066190
   2 C :   -0.018727
   3 N :   -0.125262
   4 N :    0.136635
   5 C :   -0.026049
   6 C :   -0.149327
   7 H :    0.027855
   8 H :    0.013526
   9 H :    0.013541
  10 H :    0.081406
  11 H :    0.023369
  12 H :    0.025445

  Mayer bond orders larger than 0.1
B(  0-C ,  1-O ) :   0.9895 B(  0-C ,  7-H ) :   0.9753 B(  0-C ,  8-H ) :   0.9598
B(  0-C ,  9-H ) :   0.9593 B(  1-O ,  2-C ) :   1.1764 B(  2-C ,  3-N ) :   1.5320
B(  2-C ,  6-C ) :   1.2629 B(  3-N ,  4-N ) :   1.1455 B(  3-N ,  5-C ) :   0.1371
B(  4-N ,  5-C ) :   1.2613 B(  4-N , 10-H ) :   0.9498 B(  5-C ,  6-C ) :   1.4014
B(  5-C , 11-H ) :   0.9769 B(  6-C , 12-H ) :   0.9879

FINAL SINGLE POINT ENERGY      -340.077105081135

DIPOLE MOMENT
-------------
                                X             Y             Z
Electronic contribution:     -1.27217       4.61934      -1.26979
Nuclear contribution   :      1.91191      -4.99097       0.54485
                        -----------------------------------------
Total Dipole Moment    :      0.63974      -0.37163      -0.72494
                        -----------------------------------------
Magnitude (a.u.)       :      1.03582
Magnitude (Debye)      :      2.63284

                             ****ORCA TERMINATED NORMALLY****
TOTAL RUN TIME: 0 days 0 hours 0 minutes 5 seconds 938 msec
