                         Program Version 3.0.3 - RELEASE   -
|  1> ! RI PBE def2-SVP def2-SVP/J NBO PAL2
|  2> % maxcore 2000
|  3> % output
|  4>     # printlevel mini
|  5>     print[ P_Basis ] 0
|  6>     print[ P_SCFInfo ] 1
|  7>     print[ P_SCFIterInfo ] 1
|  8>     print[ P_OrbEn ] 0
|  9>     print[ P_Cartesian ] 0
| 10> end
| 11> *xyz 0 1
| 12>  C        1.6425920000    -0.3854880000     0.8723960000
| 13>  O        2.6355820000     0.0131000000    -0.0686730000
| 14>  C        3.2079290000    -0.9374300000    -0.7813660000
| 15>  C        4.1720990000    -0.8548950000    -1.7389520000
| 16>  C        4.3428990000    -2.2051820000    -2.1055510000
| 17>  N        3.5691890000    -3.0209370000    -1.4453830000
| 18>  O        2.8357560000    -2.1991740000    -0.5892690000
| 19>  H        1.3045080000     0.5334740000     1.3449640000
| 20>  H        2.0650200000    -1.0589010000     1.6205240000
| 21>  H        0.8079610000    -0.8785540000     0.3704980000
| 22>  H        4.6656540000     0.0262410000    -2.1080440000
| 23>  H        5.0164310000    -2.6199430000    -2.8426440000
| 24> *
| 25>
| 26>                          ****END OF INPUT****
 Total Charge           Charge          ....    0
 Multiplicity           Mult            ....    1
 Number of Electrons    NEL             ....   52
 Basis Dimension        Dim             ....  123

MULLIKEN ATOMIC CHARGES
-----------------------
   0 C :    0.146834
   1 O :   -0.246561
   2 C :    0.279183
   3 C :   -0.135834
   4 C :    0.037490
   5 N :   -0.043188
   6 O :   -0.192369
   7 H :    0.046916
   8 H :    0.044986
   9 H :    0.043422
  10 H :    0.002531
  11 H :    0.016589
Sum of atomic charges:   -0.0000000

LOEWDIN ATOMIC CHARGES
----------------------
   0 C :    0.074309
   1 O :   -0.048335
   2 C :    0.050656
   3 C :   -0.146801
   4 C :   -0.034061
   5 N :   -0.058036
   6 O :    0.013356
   7 H :    0.031544
   8 H :    0.025218
   9 H :    0.024952
  10 H :    0.036128
  11 H :    0.031069

  Mayer bond orders larger than 0.1
B(  0-C ,  1-O ) :   0.9378 B(  0-C ,  7-H ) :   0.9765 B(  0-C ,  8-H ) :   0.9682
B(  0-C ,  9-H ) :   0.9681 B(  1-O ,  2-C ) :   1.2236 B(  2-C ,  3-C ) :   1.4553
B(  2-C ,  5-N ) :   0.1095 B(  2-C ,  6-O ) :   1.1542 B(  3-C ,  4-C ) :   1.2247
B(  3-C , 10-H ) :   0.9976 B(  4-C ,  5-N ) :   1.6705 B(  4-C , 11-H ) :   0.9762
B(  5-N ,  6-O ) :   0.9609

FINAL SINGLE POINT ENERGY      -359.887566824147

DIPOLE MOMENT
-------------
                                X             Y             Z
Electronic contribution:      1.57056      -1.76523      -1.83469
Nuclear contribution   :     -1.77887       2.58976       2.16290
                        -----------------------------------------
Total Dipole Moment    :     -0.20831       0.82453       0.32821
                        -----------------------------------------
Magnitude (a.u.)       :      0.91157
Magnitude (Debye)      :      2.31702

                             ****ORCA TERMINATED NORMALLY****
TOTAL RUN TIME: 0 days 0 hours 0 minutes 6 seconds 15 msec
