                         Program Version 3.0.3 - RELEASE   -
|  1> ! RI PBE def2-SVP def2-SVP/J NBO PAL2
|  2> % maxcore 2000
|  3> % output
|  4>     # printlevel mini
|  5>     print[ P_Basis ] 0
|  6>     print[ P_SCFInfo ] 1
|  7>     print[ P_SCFIterInfo ] 1
|  8>     print[ P_OrbEn ] 0
|  9>     print[ P_Cartesian ] 0
| 10> end
| 11> *xyz 0 1
| 12>  C        1.5722660000     0.8460200000    -0.5968810000
| 13>  O        2.3813350000    -0.0845350000     0.0898590000
| 14>  C        2.9289240000    -1.0582080000    -0.7291000000
| 15>  C        3.7726810000    -1.9890440000     0.1218760000
| 16>  C        2.8332110000    -3.1418530000     0.2346290000
| 17>  N        1.8327620000    -3.0721770000    -0.5408010000
| 18>  O        1.9195010000    -1.9038950000    -1.2876170000
| 19>  H        1.2594760000     1.5924420000     0.1319500000
| 20>  H        0.6898690000     0.3657390000    -1.0277810000
| 21>  H        2.1377130000     1.3407560000    -1.3975250000
| 22>  H        3.4444270000    -0.6012540000    -1.5826760000
| 23>  H        4.0173990000    -1.5266420000     1.0788320000
| 24>  H        4.7033980000    -2.2853250000    -0.3699390000
| 25>  H        2.9374580000    -4.0015350000     0.8836650000
| 26> *
| 27>
| 28>                          ****END OF INPUT****
 Total Charge           Charge          ....    0
 Multiplicity           Mult            ....    1
 Number of Electrons    NEL             ....   54
 Basis Dimension        Dim             ....  133

MULLIKEN ATOMIC CHARGES
-----------------------
   0 C :    0.149439
   1 O :   -0.310462
   2 C :    0.237673
   3 C :    0.031893
   4 C :   -0.059963
   5 N :    0.024439
   6 O :   -0.271223
   7 H :    0.035911
   8 H :    0.034013
   9 H :    0.002949
  10 H :   -0.006000
  11 H :    0.054870
  12 H :    0.045988
  13 H :    0.030473
Sum of atomic charges:   -0.0000000

LOEWDIN ATOMIC CHARGES
----------------------
   0 C :    0.053451
   1 O :   -0.129629
   2 C :    0.097358
   3 C :   -0.066145
   4 C :   -0.047406
   5 N :    0.011907
   6 O :   -0.100141
   7 H :    0.025468
   8 H :    0.015725
   9 H :    0.008266
  10 H :    0.003362
  11 H :    0.049656
  12 H :    0.047752
  13 H :    0.030377

  Mayer bond orders larger than 0.1
B(  0-C ,  1-O ) :   0.9862 B(  0-C ,  7-H ) :   0.9771 B(  0-C ,  8-H ) :   0.9642
B(  0-C ,  9-H ) :   0.9536 B(  1-O ,  2-C ) :   1.1202 B(  2-C ,  3-C ) :   1.0666
B(  2-C ,  6-O ) :   0.9874 B(  2-C , 10-H ) :   0.9162 B(  3-C ,  4-C ) :   1.0083
B(  3-C , 11-H ) :   0.9198 B(  3-C , 12-H ) :   0.9015 B(  4-C ,  5-N ) :   1.9097
B(  4-C ,  6-O ) :   0.1004 B(  4-C , 13-H ) :   0.9692 B(  5-N ,  6-O ) :   0.9645

FINAL SINGLE POINT ENERGY      -361.073304310155

DIPOLE MOMENT
-------------
                                X             Y             Z
Electronic contribution:     -1.05412      -4.09207      -0.27501
Nuclear contribution   :      1.93248       4.56915       0.49374
                        -----------------------------------------
Total Dipole Moment    :      0.87836       0.47708       0.21873
                        -----------------------------------------
Magnitude (a.u.)       :      1.02321
Magnitude (Debye)      :      2.60080

                             ****ORCA TERMINATED NORMALLY****
TOTAL RUN TIME: 0 days 0 hours 0 minutes 5 seconds 781 msec
