                         Program Version 3.0.3 - RELEASE   -
|  1> ! RI PBE def2-SVP def2-SVP/J NBO PAL2
|  2> % maxcore 2000
|  3> % output
|  4>     # printlevel mini
|  5>     print[ P_Basis ] 0
|  6>     print[ P_SCFInfo ] 1
|  7>     print[ P_SCFIterInfo ] 1
|  8>     print[ P_OrbEn ] 0
|  9>     print[ P_Cartesian ] 0
| 10> end
| 11> *xyz 0 1
| 12>  C        3.0840880000    -1.2502720000     0.3813450000
| 13>  O        2.6137390000     0.0354690000     0.0345370000
| 14>  C        3.1147200000     0.5623470000    -1.0821020000
| 15>  N        2.7116540000     1.7509920000    -1.4469020000
| 16>  O        3.3911360000     2.0199470000    -2.6123710000
| 17>  C        4.1786230000     0.9936580000    -2.9149050000
| 18>  C        4.0655120000     0.0152580000    -1.9894960000
| 19>  H        2.5767210000    -1.5197200000     1.3053360000
| 20>  H        4.1653470000    -1.2448910000     0.5518010000
| 21>  H        2.8388880000    -1.9848000000    -0.3923190000
| 22>  H        4.7650950000     1.0914870000    -3.8156160000
| 23>  H        4.5732670000    -0.9328540000    -1.9601980000
| 24> *
| 25>
| 26>                          ****END OF INPUT****
 Total Charge           Charge          ....    0
 Multiplicity           Mult            ....    1
 Number of Electrons    NEL             ....   52
 Basis Dimension        Dim             ....  123

MULLIKEN ATOMIC CHARGES
-----------------------
   0 C :    0.142837
   1 O :   -0.239470
   2 C :    0.126845
   3 N :   -0.042951
   4 O :   -0.147497
   5 C :    0.179843
   6 C :   -0.160478
   7 H :    0.047960
   8 H :    0.032837
   9 H :    0.032544
  10 H :    0.025136
  11 H :    0.002394
Sum of atomic charges:   -0.0000000

LOEWDIN ATOMIC CHARGES
----------------------
   0 C :    0.068433
   1 O :   -0.053200
   2 C :   -0.018483
   3 N :   -0.072789
   4 O :    0.051108
   5 C :    0.034217
   6 C :   -0.141678
   7 H :    0.032836
   8 H :    0.018068
   9 H :    0.017763
  10 H :    0.028934
  11 H :    0.034791

  Mayer bond orders larger than 0.1
B(  0-C ,  1-O ) :   0.9724 B(  0-C ,  7-H ) :   0.9750 B(  0-C ,  8-H ) :   0.9623
B(  0-C ,  9-H ) :   0.9620 B(  1-O ,  2-C ) :   1.1951 B(  2-C ,  3-N ) :   1.5899
B(  2-C ,  6-C ) :   1.1738 B(  3-N ,  4-O ) :   0.9910 B(  3-N ,  5-C ) :   0.1268
B(  4-O ,  5-C ) :   1.2054 B(  5-C ,  6-C ) :   1.5243 B(  5-C , 10-H ) :   0.9765
B(  6-C , 11-H ) :   0.9851

FINAL SINGLE POINT ENERGY      -359.882232658346

DIPOLE MOMENT
-------------
                                X             Y             Z
Electronic contribution:     -1.41758       5.56974      -2.37750
Nuclear contribution   :      2.27653      -6.96825       2.26127
                        -----------------------------------------
Total Dipole Moment    :      0.85895      -1.39851      -0.11623
                        -----------------------------------------
Magnitude (a.u.)       :      1.64534
Magnitude (Debye)      :      4.18213

                             ****ORCA TERMINATED NORMALLY****
TOTAL RUN TIME: 0 days 0 hours 0 minutes 5 seconds 771 msec
