                         Program Version 3.0.3 - RELEASE   -
|  1> ! RI PBE def2-SVP def2-SVP/J NBO PAL2
|  2> % maxcore 2000
|  3> % output
|  4>     # printlevel mini
|  5>     print[ P_Basis ] 0
|  6>     print[ P_SCFInfo ] 1
|  7>     print[ P_SCFIterInfo ] 1
|  8>     print[ P_OrbEn ] 0
|  9>     print[ P_Cartesian ] 0
| 10> end
| 11> *xyz 0 1
| 12>  C        2.3667450000     0.6710290000    -0.9368700000
| 13>  O        2.1194410000    -0.1274960000     0.1901870000
| 14>  C        2.9289020000    -1.2576890000     0.2521790000
| 15>  C        2.6808330000    -2.1467300000     1.4673820000
| 16>  N        2.8403080000    -3.3207480000     0.5934860000
| 17>  C        2.5777900000    -2.4987480000    -0.6047090000
| 18>  C        3.4021290000    -2.8503350000    -1.8171550000
| 19>  H        1.7363420000     1.5565710000    -0.8541400000
| 20>  H        2.1200680000     0.1498590000    -1.8707790000
| 21>  H        3.4187010000     0.9851670000    -0.9820660000
| 22>  H        3.9881710000    -0.9858350000     0.1366220000
| 23>  H        1.6610670000    -1.9873900000     1.8391360000
| 24>  H        3.3854200000    -2.0907250000     2.3002710000
| 25>  H        2.1881540000    -4.0768980000     0.7559900000
| 26>  H        1.5084690000    -2.4460000000    -0.8599640000
| 27>  H        4.4656470000    -2.8436490000    -1.5677670000
| 28>  H        3.2273720000    -2.1449550000    -2.6342570000
| 29>  H        3.1515320000    -3.8506190000    -2.1812560000
| 30> *
| 31>
| 32>                          ****END OF INPUT****
 Total Charge           Charge          ....    0
 Multiplicity           Mult            ....    1
 Number of Electrons    NEL             ....   56
 Basis Dimension        Dim             ....  153

MULLIKEN ATOMIC CHARGES
-----------------------
   0 C :    0.159093
   1 O :   -0.307894
   2 C :    0.027317
   3 C :    0.167829
   4 N :   -0.260367
   5 C :   -0.035503
   6 C :    0.081440
   7 H :    0.031614
   8 H :    0.006307
   9 H :    0.003154
  10 H :   -0.012946
  11 H :    0.002110
  12 H :    0.012790
  13 H :    0.095214
  14 H :   -0.012431
  15 H :    0.014196
  16 H :    0.014841
  17 H :    0.013235
Sum of atomic charges:   -0.0000000

LOEWDIN ATOMIC CHARGES
----------------------
   0 C :    0.052809
   1 O :   -0.132818
   2 C :    0.043395
   3 C :    0.023034
   4 N :   -0.106716
   5 C :   -0.002164
   6 C :   -0.073460
   7 H :    0.023454
   8 H :    0.004525
   9 H :    0.006501
  10 H :    0.005448
  11 H :    0.009974
  12 H :    0.012139
  13 H :    0.046760
  14 H :    0.006477
  15 H :    0.026172
  16 H :    0.025864
  17 H :    0.028606

  Mayer bond orders larger than 0.1
B(  0-C ,  1-O ) :   1.0126 B(  0-C ,  7-H ) :   0.9753 B(  0-C ,  8-H ) :   0.9567
B(  0-C ,  9-H ) :   0.9530 B(  1-O ,  2-C ) :   1.0880 B(  2-C ,  3-C ) :   1.0624
B(  2-C ,  5-C ) :   1.0105 B(  2-C , 10-H ) :   0.8815 B(  3-C ,  4-N ) :   1.0440
B(  3-C , 11-H ) :   0.9155 B(  3-C , 12-H ) :   0.9327 B(  4-N ,  5-C ) :   1.0422
B(  4-N , 13-H ) :   0.9402 B(  5-C ,  6-C ) :   1.0927 B(  5-C , 14-H ) :   0.8923
B(  6-C , 15-H ) :   0.9428 B(  6-C , 16-H ) :   0.9536 B(  6-C , 17-H ) :   0.9488

FINAL SINGLE POINT ENERGY      -326.418824763097

DIPOLE MOMENT
-------------
                                X             Y             Z
Electronic contribution:     -1.30396       0.00116       3.73687
Nuclear contribution   :      1.14160       0.05687      -4.08460
                        -----------------------------------------
Total Dipole Moment    :     -0.16236       0.05803      -0.34773
                        -----------------------------------------
Magnitude (a.u.)       :      0.38813
Magnitude (Debye)      :      0.98655

                             ****ORCA TERMINATED NORMALLY****
TOTAL RUN TIME: 0 days 0 hours 0 minutes 7 seconds 953 msec
