                         Program Version 3.0.3 - RELEASE   -
|  1> ! RI PBE def2-SVP def2-SVP/J NBO PAL2
|  2> % maxcore 2000
|  3> % output
|  4>     # printlevel mini
|  5>     print[ P_Basis ] 0
|  6>     print[ P_SCFInfo ] 1
|  7>     print[ P_SCFIterInfo ] 1
|  8>     print[ P_OrbEn ] 0
|  9>     print[ P_Cartesian ] 0
| 10> end
| 11> *xyz 0 1
| 12>  C        2.6081480000     0.1194390000     1.3116620000
| 13>  O        1.8522440000     0.3415950000     0.1466120000
| 14>  C        2.6175430000     0.8098720000    -0.9058250000
| 15>  C        1.9122150000     1.6941840000    -1.8943780000
| 16>  N        0.5341420000     2.0607520000    -1.7709670000
| 17>  C        2.9326120000     2.2887070000    -0.9750340000
| 18>  N        4.1740220000     2.7994230000    -1.4659540000
| 19>  H        1.9211820000    -0.2234760000     2.0858710000
| 20>  H        3.1032340000     1.0384770000     1.6489820000
| 21>  H        3.3738380000    -0.6506420000     1.1495390000
| 22>  H        3.3782640000     0.1182850000    -1.2731270000
| 23>  H        2.2303110000     1.5795440000    -2.9267400000
| 24>  H        0.3036620000     2.1933510000    -0.7936300000
| 25>  H       -0.0521350000     1.2986730000    -2.0933750000
| 26>  H        2.4956110000     2.8551910000    -0.1521960000
| 27>  H        4.1837810000     2.9014750000    -2.4696370000
| 28>  H        4.9666370000     2.2409500000    -1.1830130000
| 29> *
| 30>
| 31>                          ****END OF INPUT****
 Total Charge           Charge          ....    0
 Multiplicity           Mult            ....    1
 Number of Electrons    NEL             ....   56
 Basis Dimension        Dim             ....  148

MULLIKEN ATOMIC CHARGES
-----------------------
   0 C :    0.164297
   1 O :   -0.307372
   2 C :    0.093555
   3 C :   -0.026740
   4 N :   -0.106943
   5 C :   -0.113002
   6 N :   -0.119327
   7 H :    0.030666
   8 H :    0.008414
   9 H :    0.004319
  10 H :   -0.015808
  11 H :    0.009851
  12 H :    0.082496
  13 H :    0.095189
  14 H :    0.023071
  15 H :    0.088358
  16 H :    0.088975
Sum of atomic charges:    0.0000000

LOEWDIN ATOMIC CHARGES
----------------------
   0 C :    0.054714
   1 O :   -0.127714
   2 C :   -0.001305
   3 C :   -0.014419
   4 N :   -0.078997
   5 C :   -0.034800
   6 N :   -0.084071
   7 H :    0.021544
   8 H :    0.007125
   9 H :    0.006572
  10 H :   -0.001511
  11 H :    0.020294
  12 H :    0.051890
  13 H :    0.059508
  14 H :    0.017181
  15 H :    0.052881
  16 H :    0.051108

  Mayer bond orders larger than 0.1
B(  0-C ,  1-O ) :   1.0020 B(  0-C ,  7-H ) :   0.9759 B(  0-C ,  8-H ) :   0.9553
B(  0-C ,  9-H ) :   0.9569 B(  1-O ,  2-C ) :   1.0956 B(  2-C ,  3-C ) :   0.8775
B(  2-C ,  5-C ) :   0.9012 B(  2-C , 10-H ) :   0.9182 B(  3-C ,  4-N ) :   1.1782
B(  3-C ,  5-C ) :   0.9384 B(  3-C , 11-H ) :   0.9257 B(  4-N , 12-H ) :   0.9525
B(  4-N , 13-H ) :   0.9644 B(  5-C ,  6-N ) :   1.1660 B(  5-C , 14-H ) :   0.9278
B(  6-N , 15-H ) :   0.9676 B(  6-N , 16-H ) :   0.9701

FINAL SINGLE POINT ENERGY      -342.429087694395

DIPOLE MOMENT
-------------
                                X             Y             Z
Electronic contribution:     -1.61717       0.20920      -1.47742
Nuclear contribution   :      2.00637      -0.88955       1.59167
                        -----------------------------------------
Total Dipole Moment    :      0.38920      -0.68036       0.11425
                        -----------------------------------------
Magnitude (a.u.)       :      0.79210
Magnitude (Debye)      :      2.01335

                             ****ORCA TERMINATED NORMALLY****
TOTAL RUN TIME: 0 days 0 hours 0 minutes 7 seconds 486 msec
