                         Program Version 3.0.3 - RELEASE   -
|  1> ! RI PBE def2-SVP def2-SVP/J NBO PAL2
|  2> % maxcore 2000
|  3> % output
|  4>     # printlevel mini
|  5>     print[ P_Basis ] 0
|  6>     print[ P_SCFInfo ] 1
|  7>     print[ P_SCFIterInfo ] 1
|  8>     print[ P_OrbEn ] 0
|  9>     print[ P_Cartesian ] 0
| 10> end
| 11> *xyz 0 1
| 12>  C        2.4518760000     0.9099990000    -0.2228760000
| 13>  O        2.1026230000    -0.4502020000    -0.1222850000
| 14>  C        2.5936950000    -1.0410450000     1.0273290000
| 15>  C        2.8665760000    -2.5228700000     0.9564410000
| 16>  N        2.6638380000    -3.3058680000    -0.2252830000
| 17>  C        4.0023780000    -1.5517940000     1.0252190000
| 18>  O        4.7457590000    -1.4049620000     2.1908310000
| 19>  H        2.0444310000     1.2813250000    -1.1635040000
| 20>  H        3.5403110000     1.0445450000    -0.2199700000
| 21>  H        2.0273900000     1.4916500000     0.6052000000
| 22>  H        2.2226350000    -0.6336190000     1.9679660000
| 23>  H        2.6702210000    -3.0634490000     1.8769110000
| 24>  H        2.8668030000    -2.7448740000    -1.0443150000
| 25>  H        1.6848420000    -3.5590600000    -0.3021680000
| 26>  H        4.5465840000    -1.3987150000     0.0918620000
| 27>  H        5.2525380000    -2.2104730000     2.3279320000
| 28> *
| 29>
| 30>                          ****END OF INPUT****
 Total Charge           Charge          ....    0
 Multiplicity           Mult            ....    1
 Number of Electrons    NEL             ....   56
 Basis Dimension        Dim             ....  143

MULLIKEN ATOMIC CHARGES
-----------------------
   0 C :    0.166287
   1 O :   -0.312251
   2 C :    0.075447
   3 C :   -0.039669
   4 N :   -0.111304
   5 C :    0.033567
   6 O :   -0.231075
   7 H :    0.027891
   8 H :    0.011926
   9 H :    0.007814
  10 H :    0.004968
  11 H :    0.014811
  12 H :    0.080546
  13 H :    0.096061
  14 H :    0.012072
  15 H :    0.162910
Sum of atomic charges:    0.0000000

LOEWDIN ATOMIC CHARGES
----------------------
   0 C :    0.056576
   1 O :   -0.129440
   2 C :    0.006366
   3 C :   -0.026870
   4 N :   -0.082121
   5 C :    0.005996
   6 O :   -0.098344
   7 H :    0.020840
   8 H :    0.008499
   9 H :    0.009128
  10 H :    0.008573
  11 H :    0.024773
  12 H :    0.051265
  13 H :    0.059893
  14 H :    0.008828
  15 H :    0.076038

  Mayer bond orders larger than 0.1
B(  0-C ,  1-O ) :   0.9976 B(  0-C ,  7-H ) :   0.9759 B(  0-C ,  8-H ) :   0.9576
B(  0-C ,  9-H ) :   0.9576 B(  1-O ,  2-C ) :   1.0897 B(  2-C ,  3-C ) :   0.8830
B(  2-C ,  5-C ) :   0.9180 B(  2-C , 10-H ) :   0.9152 B(  3-C ,  4-N ) :   1.1618
B(  3-C ,  5-C ) :   0.9360 B(  3-C , 11-H ) :   0.9222 B(  4-N , 12-H ) :   0.9531
B(  4-N , 13-H ) :   0.9637 B(  5-C ,  6-O ) :   1.1435 B(  5-C , 14-H ) :   0.9330
B(  6-O , 15-H ) :   0.9780

FINAL SINGLE POINT ENERGY      -362.271013261673

DIPOLE MOMENT
-------------
                                X             Y             Z
Electronic contribution:      0.73506      -1.90666       1.50615
Nuclear contribution   :     -0.75712       1.97969      -1.64283
                        -----------------------------------------
Total Dipole Moment    :     -0.02206       0.07302      -0.13668
                        -----------------------------------------
Magnitude (a.u.)       :      0.15653
Magnitude (Debye)      :      0.39787

                             ****ORCA TERMINATED NORMALLY****
TOTAL RUN TIME: 0 days 0 hours 0 minutes 7 seconds 95 msec
