                         Program Version 3.0.3 - RELEASE   -
|  1> ! RI PBE def2-SVP def2-SVP/J NBO PAL2
|  2> % maxcore 2000
|  3> % output
|  4>     # printlevel mini
|  5>     print[ P_Basis ] 0
|  6>     print[ P_SCFInfo ] 1
|  7>     print[ P_SCFIterInfo ] 1
|  8>     print[ P_OrbEn ] 0
|  9>     print[ P_Cartesian ] 0
| 10> end
| 11> *xyz 0 1
| 12>  C        1.1700590000    -0.0239520000     0.2454150000
| 13>  O        2.5500190000    -0.0713520000    -0.0505660000
| 14>  C        2.8085410000    -0.5612160000    -1.3209700000
| 15>  C        4.3089390000    -0.7051270000    -1.6396390000
| 16>  N        4.0525970000    -2.1173570000    -1.8958880000
| 17>  C        2.7425620000    -2.1012490000    -1.5209520000
| 18>  O        1.9123410000    -2.9577510000    -1.3951260000
| 19>  H        1.0761590000     0.3805990000     1.2525740000
| 20>  H        0.7176770000    -1.0193020000     0.2069080000
| 21>  H        0.6421030000     0.6351510000    -0.4567500000
| 22>  H        2.2418520000    -0.0200670000    -2.0921530000
| 23>  H        4.9350850000    -0.5136840000    -0.7658220000
| 24>  H        4.6728040000    -0.1444290000    -2.5028880000
| 25>  H        4.6675720000    -2.8813650000    -2.1280430000
| 26> *
| 27>
| 28>                          ****END OF INPUT****
 Total Charge           Charge          ....    0
 Multiplicity           Mult            ....    1
 Number of Electrons    NEL             ....   54
 Basis Dimension        Dim             ....  133

MULLIKEN ATOMIC CHARGES
-----------------------
   0 C :    0.143995
   1 O :   -0.322615
   2 C :   -0.047071
   3 C :    0.228950
   4 N :   -0.215153
   5 C :    0.130832
   6 O :   -0.166942
   7 H :    0.032113
   8 H :    0.037624
   9 H :    0.007451
  10 H :    0.013088
  11 H :    0.031577
  12 H :    0.021711
  13 H :    0.104441
Sum of atomic charges:   -0.0000000

LOEWDIN ATOMIC CHARGES
----------------------
   0 C :    0.057271
   1 O :   -0.130931
   2 C :    0.022826
   3 C :    0.040198
   4 N :   -0.000307
   5 C :    0.002435
   6 O :   -0.158896
   7 H :    0.024410
   8 H :    0.016996
   9 H :    0.007936
  10 H :    0.012763
  11 H :    0.024208
  12 H :    0.018879
  13 H :    0.062212

  Mayer bond orders larger than 0.1
B(  0-C ,  1-O ) :   0.9880 B(  0-C ,  7-H ) :   0.9755 B(  0-C ,  8-H ) :   0.9605
B(  0-C ,  9-H ) :   0.9544 B(  1-O ,  2-C ) :   1.0485 B(  2-C ,  3-C ) :   1.0403
B(  2-C ,  5-C ) :   0.8692 B(  2-C , 10-H ) :   0.8669 B(  3-C ,  4-N ) :   1.0251
B(  3-C , 11-H ) :   0.9209 B(  3-C , 12-H ) :   0.9266 B(  4-N ,  5-C ) :   1.2012
B(  4-N ,  6-O ) :   0.1231 B(  4-N , 13-H ) :   0.9375 B(  5-C ,  6-O ) :   2.1579

FINAL SINGLE POINT ENERGY      -361.118435155147

DIPOLE MOMENT
-------------
                                X             Y             Z
Electronic contribution:      1.14159      -3.98547      -1.20825
Nuclear contribution   :     -0.39802       4.59677       0.87705
                        -----------------------------------------
Total Dipole Moment    :      0.74357       0.61130      -0.33120
                        -----------------------------------------
Magnitude (a.u.)       :      1.01798
Magnitude (Debye)      :      2.58749

                             ****ORCA TERMINATED NORMALLY****
TOTAL RUN TIME: 0 days 0 hours 0 minutes 5 seconds 997 msec
