                         Program Version 3.0.3 - RELEASE   -
|  1> ! RI PBE def2-SVP def2-SVP/J NBO PAL2
|  2> % maxcore 2000
|  3> % output
|  4>     # printlevel mini
|  5>     print[ P_Basis ] 0
|  6>     print[ P_SCFInfo ] 1
|  7>     print[ P_SCFIterInfo ] 1
|  8>     print[ P_OrbEn ] 0
|  9>     print[ P_Cartesian ] 0
| 10> end
| 11> *xyz 0 1
| 12>  C        2.1237440000     0.3741430000    -2.7600370000
| 13>  O        2.7224970000     0.3333860000    -1.4875070000
| 14>  C        3.4805110000    -0.8172060000    -1.2440260000
| 15>  C        4.7969450000    -0.8641450000    -1.9699930000
| 16>  N        5.6344800000     0.2493880000    -1.5559960000
| 17>  C        3.3998750000    -1.3161010000     0.1520220000
| 18>  C        2.7363880000    -2.0854930000    -0.9615370000
| 19>  H        1.4823030000     1.2556190000    -2.7805410000
| 20>  H        1.5127070000    -0.5176860000    -2.9443000000
| 21>  H        2.8629520000     0.4615740000    -3.5655300000
| 22>  H        4.6061080000    -0.8981300000    -3.0552090000
| 23>  H        5.2953520000    -1.8042860000    -1.7146810000
| 24>  H        5.0997220000     1.1083120000    -1.6106070000
| 25>  H        6.4333370000     0.3495070000    -2.1687190000
| 26>  H        2.7531580000    -0.7676150000     0.8245720000
| 27>  H        4.3034260000    -1.7110960000     0.5985580000
| 28>  H        1.6551550000    -2.0426980000    -1.0099060000
| 29>  H        3.1702510000    -3.0259740000    -1.2798740000
| 30> *
| 31>
| 32>                          ****END OF INPUT****
 Total Charge           Charge          ....    0
 Multiplicity           Mult            ....    1
 Number of Electrons    NEL             ....   56
 Basis Dimension        Dim             ....  153

MULLIKEN ATOMIC CHARGES
-----------------------
   0 C :    0.161980
   1 O :   -0.316693
   2 C :   -0.131343
   3 C :    0.188681
   4 N :   -0.206212
   5 C :    0.014847
   6 C :   -0.028446
   7 H :    0.031866
   8 H :    0.003153
   9 H :    0.008567
  10 H :   -0.009887
  11 H :   -0.018362
  12 H :    0.086929
  13 H :    0.084523
  14 H :    0.036557
  15 H :    0.032192
  16 H :    0.037668
  17 H :    0.023979
Sum of atomic charges:    0.0000000

LOEWDIN ATOMIC CHARGES
----------------------
   0 C :    0.051609
   1 O :   -0.126754
   2 C :    0.000218
   3 C :    0.006352
   4 N :   -0.112469
   5 C :   -0.035854
   6 C :   -0.055287
   7 H :    0.023229
   8 H :    0.006541
   9 H :    0.004362
  10 H :    0.000097
  11 H :    0.021278
  12 H :    0.047552
  13 H :    0.051205
  14 H :    0.032628
  15 H :    0.030013
  16 H :    0.030480
  17 H :    0.024798

  Mayer bond orders larger than 0.1
B(  0-C ,  1-O ) :   1.0028 B(  0-C ,  7-H ) :   0.9756 B(  0-C ,  8-H ) :   0.9521
B(  0-C ,  9-H ) :   0.9565 B(  1-O ,  2-C ) :   1.0450 B(  2-C ,  3-C ) :   1.0525
B(  2-C ,  5-C ) :   0.9739 B(  2-C ,  6-C ) :   0.9844 B(  3-C ,  4-N ) :   1.0928
B(  3-C , 10-H ) :   0.8982 B(  3-C , 11-H ) :   0.8986 B(  4-N , 12-H ) :   0.9578
B(  4-N , 13-H ) :   0.9617 B(  5-C ,  6-C ) :   1.0469 B(  5-C , 14-H ) :   0.9354
B(  5-C , 15-H ) :   0.9385 B(  6-C , 16-H ) :   0.9278 B(  6-C , 17-H ) :   0.9345

FINAL SINGLE POINT ENERGY      -326.415160153991

DIPOLE MOMENT
-------------
                                X             Y             Z
Electronic contribution:     -0.03229       1.33795       1.92400
Nuclear contribution   :     -0.03935      -1.45503      -2.66254
                        -----------------------------------------
Total Dipole Moment    :     -0.07163      -0.11709      -0.73854
                        -----------------------------------------
Magnitude (a.u.)       :      0.75119
Magnitude (Debye)      :      1.90938

                             ****ORCA TERMINATED NORMALLY****
TOTAL RUN TIME: 0 days 0 hours 0 minutes 8 seconds 16 msec
