                         Program Version 3.0.3 - RELEASE   -
|  1> ! RI PBE def2-SVP def2-SVP/J NBO PAL2
|  2> % maxcore 2000
|  3> % output
|  4>     # printlevel mini
|  5>     print[ P_Basis ] 0
|  6>     print[ P_SCFInfo ] 1
|  7>     print[ P_SCFIterInfo ] 1
|  8>     print[ P_OrbEn ] 0
|  9>     print[ P_Cartesian ] 0
| 10> end
| 11> *xyz 0 1
| 12>  C        2.2850070000     0.5570630000    -1.0189650000
| 13>  O        1.9246470000    -0.2802610000     0.0457300000
| 14>  C        3.0165870000    -0.9571530000     0.5949530000
| 15>  C        2.5752740000    -1.9239990000     1.6952150000
| 16>  N        2.6851400000    -3.0354980000     0.7482250000
| 17>  C        3.2309660000    -4.2784620000     1.2064530000
| 18>  C        3.4789020000    -2.2165720000    -0.1684350000
| 19>  H        1.3781770000     1.0525590000    -1.3659150000
| 20>  H        2.7206680000    -0.0048050000    -1.8557370000
| 21>  H        3.0092700000     1.3203680000    -0.7002950000
| 22>  H        3.8093950000    -0.2464610000     0.8588820000
| 23>  H        1.5760680000    -1.7566460000     2.1057960000
| 24>  H        3.3073860000    -1.9738740000     2.5161510000
| 25>  H        2.5617360000    -4.7312940000     1.9425460000
| 26>  H        4.2283270000    -4.1667540000     1.6729140000
| 27>  H        3.3242930000    -4.9761150000     0.3701830000
| 28>  H        3.1971550000    -2.2969000000    -1.2227810000
| 29>  H        4.5645210000    -2.3771970000    -0.0707920000
| 30> *
| 31>
| 32>                          ****END OF INPUT****
 Total Charge           Charge          ....    0
 Multiplicity           Mult            ....    1
 Number of Electrons    NEL             ....   56
 Basis Dimension        Dim             ....  153

MULLIKEN ATOMIC CHARGES
-----------------------
   0 C :    0.157180
   1 O :   -0.316541
   2 C :   -0.054022
   3 C :    0.220249
   4 N :   -0.360665
   5 C :    0.077627
   6 C :    0.193124
   7 H :    0.031714
   8 H :    0.003653
   9 H :    0.002305
  10 H :   -0.005003
  11 H :    0.013359
  12 H :   -0.009785
  13 H :    0.028096
  14 H :   -0.011157
  15 H :    0.027083
  16 H :    0.011860
  17 H :   -0.009075
Sum of atomic charges:   -0.0000000

LOEWDIN ATOMIC CHARGES
----------------------
   0 C :    0.050991
   1 O :   -0.132338
   2 C :    0.042719
   3 C :    0.031380
   4 N :   -0.117939
   5 C :   -0.010348
   6 C :    0.016175
   7 H :    0.023925
   8 H :    0.003734
   9 H :    0.004551
  10 H :   -0.000057
  11 H :    0.018245
  12 H :    0.005946
  13 H :    0.024977
  14 H :   -0.005579
  15 H :    0.024854
  16 H :    0.014704
  17 H :    0.004060

  Mayer bond orders larger than 0.1
B(  0-C ,  1-O ) :   1.0183 B(  0-C ,  7-H ) :   0.9755 B(  0-C ,  8-H ) :   0.9537
B(  0-C ,  9-H ) :   0.9525 B(  1-O ,  2-C ) :   1.0284 B(  2-C ,  3-C ) :   1.0562
B(  2-C ,  6-C ) :   1.0526 B(  2-C , 10-H ) :   0.9119 B(  3-C ,  4-N ) :   1.0229
B(  3-C , 11-H ) :   0.9155 B(  3-C , 12-H ) :   0.9087 B(  4-N ,  5-C ) :   1.0488
B(  4-N ,  6-C ) :   1.0252 B(  5-C , 13-H ) :   0.9687 B(  5-C , 14-H ) :   0.9345
B(  5-C , 15-H ) :   0.9684 B(  6-C , 16-H ) :   0.9161 B(  6-C , 17-H ) :   0.9069

FINAL SINGLE POINT ENERGY      -326.408241128006

DIPOLE MOMENT
-------------
                                X             Y             Z
Electronic contribution:     -2.69250       1.36242       0.32948
Nuclear contribution   :      3.26481      -1.22114      -0.42668
                        -----------------------------------------
Total Dipole Moment    :      0.57230       0.14128      -0.09719
                        -----------------------------------------
Magnitude (a.u.)       :      0.59744
Magnitude (Debye)      :      1.51858

                             ****ORCA TERMINATED NORMALLY****
TOTAL RUN TIME: 0 days 0 hours 0 minutes 7 seconds 919 msec
