                         Program Version 3.0.3 - RELEASE   -
|  1> ! RI PBE def2-SVP def2-SVP/J NBO PAL2
|  2> % maxcore 2000
|  3> % output
|  4>     # printlevel mini
|  5>     print[ P_Basis ] 0
|  6>     print[ P_SCFInfo ] 1
|  7>     print[ P_SCFIterInfo ] 1
|  8>     print[ P_OrbEn ] 0
|  9>     print[ P_Cartesian ] 0
| 10> end
| 11> *xyz 0 1
| 12>  C        2.5369410000    -1.2038730000     0.8626930000
| 13>  O        2.6723790000     0.0373920000     0.1870810000
| 14>  C        3.1720170000     0.0129590000    -1.0389920000
| 15>  C        3.4240550000     0.9996480000    -1.9314930000
| 16>  N        3.9505220000     0.4207260000    -3.0720930000
| 17>  C        3.9897710000    -0.8343150000    -2.8244300000
| 18>  O        3.5261300000    -1.1708600000    -1.5881570000
| 19>  H        2.1156040000    -0.9640180000     1.8362920000
| 20>  H        3.5070180000    -1.6904650000     0.9883900000
| 21>  H        1.8638230000    -1.8736700000     0.3224130000
| 22>  H        3.2648540000     2.0591970000    -1.8292470000
| 23>  H        4.3322960000    -1.6444110000    -3.4474380000
| 24> *
| 25>
| 26>                          ****END OF INPUT****
 Total Charge           Charge          ....    0
 Multiplicity           Mult            ....    1
 Number of Electrons    NEL             ....   52
 Basis Dimension        Dim             ....  123

MULLIKEN ATOMIC CHARGES
-----------------------
   0 C :    0.144134
   1 O :   -0.247937
   2 C :    0.228173
   3 C :   -0.080615
   4 N :   -0.107916
   5 C :    0.114635
   6 O :   -0.198344
   7 H :    0.048343
   8 H :    0.036691
   9 H :    0.039453
  10 H :    0.002081
  11 H :    0.021302
Sum of atomic charges:   -0.0000000

LOEWDIN ATOMIC CHARGES
----------------------
   0 C :    0.071146
   1 O :   -0.056574
   2 C :    0.031649
   3 C :   -0.099513
   4 N :   -0.079376
   5 C :    0.010129
   6 O :    0.005274
   7 H :    0.031574
   8 H :    0.021227
   9 H :    0.021583
  10 H :    0.024795
  11 H :    0.018088

  Mayer bond orders larger than 0.1
B(  0-C ,  1-O ) :   0.9473 B(  0-C ,  7-H ) :   0.9768 B(  0-C ,  8-H ) :   0.9664
B(  0-C ,  9-H ) :   0.9671 B(  1-O ,  2-C ) :   1.1944 B(  2-C ,  3-C ) :   1.5138
B(  2-C ,  6-O ) :   1.1111 B(  3-C ,  4-N ) :   1.3063 B(  3-C , 10-H ) :   1.0004
B(  4-N ,  5-C ) :   1.7742 B(  5-C ,  6-O ) :   1.1000 B(  5-C , 11-H ) :   0.9771

FINAL SINGLE POINT ENERGY      -359.918057964201

DIPOLE MOMENT
-------------
                                X             Y             Z
Electronic contribution:      1.08095       1.66719      -3.13230
Nuclear contribution   :     -1.34709      -2.50441       4.01368
                        -----------------------------------------
Total Dipole Moment    :     -0.26614      -0.83722       0.88138
                        -----------------------------------------
Magnitude (a.u.)       :      1.24442
Magnitude (Debye)      :      3.16308

                             ****ORCA TERMINATED NORMALLY****
TOTAL RUN TIME: 0 days 0 hours 0 minutes 5 seconds 740 msec
