                         Program Version 3.0.3 - RELEASE   -
|  1> ! RI PBE def2-SVP def2-SVP/J NBO PAL2
|  2> % maxcore 2000
|  3> % output
|  4>     # printlevel mini
|  5>     print[ P_Basis ] 0
|  6>     print[ P_SCFInfo ] 1
|  7>     print[ P_SCFIterInfo ] 1
|  8>     print[ P_OrbEn ] 0
|  9>     print[ P_Cartesian ] 0
| 10> end
| 11> *xyz 0 1
| 12>  C        1.1600710000    -0.3309580000    -0.2493130000
| 13>  O        2.1555400000     0.4638990000     0.3654820000
| 14>  C        2.8327210000    -0.1216870000     1.3634430000
| 15>  C        3.8350430000     0.4652170000     2.0928580000
| 16>  N        4.2140470000    -0.5110340000     2.9848820000
| 17>  C        3.4511670000    -1.5963040000     2.7581280000
| 18>  N        2.6005920000    -1.3918740000     1.7778930000
| 19>  H        0.7187840000     0.2933560000    -1.0247080000
| 20>  H        0.3939830000    -0.6328500000     0.4695060000
| 21>  H        1.5907440000    -1.2318550000    -0.6938610000
| 22>  H        4.2865290000     1.4405970000     2.0557330000
| 23>  H        4.9331770000    -0.4250780000     3.6805820000
| 24>  H        3.5477130000    -2.5086270000     3.3266760000
| 25> *
| 26>
| 27>                          ****END OF INPUT****
 Total Charge           Charge          ....    0
 Multiplicity           Mult            ....    1
 Number of Electrons    NEL             ....   52
 Basis Dimension        Dim             ....  128

MULLIKEN ATOMIC CHARGES
-----------------------
   0 C :    0.169892
   1 O :   -0.274077
   2 C :    0.116709
   3 C :   -0.033894
   4 N :   -0.044095
   5 C :    0.076050
   6 N :   -0.190026
   7 H :    0.027887
   8 H :    0.020997
   9 H :    0.020657
  10 H :   -0.014817
  11 H :    0.119514
  12 H :    0.005204
Sum of atomic charges:   -0.0000000

LOEWDIN ATOMIC CHARGES
----------------------
   0 C :    0.064527
   1 O :   -0.082793
   2 C :   -0.011440
   3 C :   -0.092188
   4 N :    0.102200
   5 C :   -0.015760
   6 N :   -0.137045
   7 H :    0.021240
   8 H :    0.015520
   9 H :    0.015432
  10 H :    0.020701
  11 H :    0.085237
  12 H :    0.014368

  Mayer bond orders larger than 0.1
B(  0-C ,  1-O ) :   0.9697 B(  0-C ,  7-H ) :   0.9751 B(  0-C ,  8-H ) :   0.9640
B(  0-C ,  9-H ) :   0.9638 B(  1-O ,  2-C ) :   1.1698 B(  2-C ,  3-C ) :   1.4291
B(  2-C ,  6-N ) :   1.3663 B(  3-C ,  4-N ) :   1.1748 B(  3-C ,  5-C ) :   0.1130
B(  3-C , 10-H ) :   0.9873 B(  4-N ,  5-C ) :   1.2741 B(  4-N , 11-H ) :   0.9333
B(  5-C ,  6-N ) :   1.5617 B(  5-C , 12-H ) :   0.9725

FINAL SINGLE POINT ENERGY      -340.096381697132

DIPOLE MOMENT
-------------
                                X             Y             Z
Electronic contribution:      2.32099       0.53486       2.10925
Nuclear contribution   :     -1.61357      -0.49555      -1.40373
                        -----------------------------------------
Total Dipole Moment    :      0.70742       0.03930       0.70552
                        -----------------------------------------
Magnitude (a.u.)       :      0.99987
Magnitude (Debye)      :      2.54147

                             ****ORCA TERMINATED NORMALLY****
TOTAL RUN TIME: 0 days 0 hours 0 minutes 5 seconds 933 msec
