                         Program Version 3.0.3 - RELEASE   -
|  1> ! RI PBE def2-SVP def2-SVP/J NBO PAL2
|  2> % maxcore 2000
|  3> % output
|  4>     # printlevel mini
|  5>     print[ P_Basis ] 0
|  6>     print[ P_SCFInfo ] 1
|  7>     print[ P_SCFIterInfo ] 1
|  8>     print[ P_OrbEn ] 0
|  9>     print[ P_Cartesian ] 0
| 10> end
| 11> *xyz 0 1
| 12>  C        2.6983730000    -1.3836040000     0.4626120000
| 13>  O        2.3481060000    -0.1105620000    -0.0260990000
| 14>  C        2.8942060000     0.1777650000    -1.2734170000
| 15>  C        2.7653050000     1.6094720000    -1.6845580000
| 16>  N        2.3183110000     1.7441260000    -2.8668470000
| 17>  N        2.0132370000     0.4372190000    -3.3931640000
| 18>  C        2.2862320000    -0.4324670000    -2.5057900000
| 19>  H        2.2675370000    -1.4700620000     1.4592940000
| 20>  H        3.7885070000    -1.4953490000     0.5311990000
| 21>  H        2.2990510000    -2.1888260000    -0.1651260000
| 22>  H        3.9763260000    -0.0687230000    -1.2969960000
| 23>  H        3.0598820000     2.4609910000    -1.0825420000
| 24>  H        2.1376360000    -1.4892010000    -2.6959650000
| 25> *
| 26>
| 27>                          ****END OF INPUT****
 Total Charge           Charge          ....    0
 Multiplicity           Mult            ....    1
 Number of Electrons    NEL             ....   52
 Basis Dimension        Dim             ....  128

MULLIKEN ATOMIC CHARGES
-----------------------
   0 C :    0.156073
   1 O :   -0.318894
   2 C :    0.088134
   3 C :    0.051017
   4 N :   -0.090150
   5 N :   -0.089641
   6 C :    0.018834
   7 H :    0.042758
   8 H :    0.013053
   9 H :    0.015013
  10 H :    0.051191
  11 H :    0.032129
  12 H :    0.030484
Sum of atomic charges:    0.0000000

LOEWDIN ATOMIC CHARGES
----------------------
   0 C :    0.058121
   1 O :   -0.123551
   2 C :    0.001813
   3 C :    0.003818
   4 N :   -0.040388
   5 N :   -0.040102
   6 C :   -0.014313
   7 H :    0.029913
   8 H :    0.010239
   9 H :    0.009402
  10 H :    0.048233
  11 H :    0.030659
  12 H :    0.026156

  Mayer bond orders larger than 0.1
B(  0-C ,  1-O ) :   0.9977 B(  0-C ,  7-H ) :   0.9752 B(  0-C ,  8-H ) :   0.9543
B(  0-C ,  9-H ) :   0.9602 B(  1-O ,  2-C ) :   1.0355 B(  2-C ,  3-C ) :   0.9748
B(  2-C ,  6-C ) :   0.9674 B(  2-C , 10-H ) :   0.8467 B(  3-C ,  4-N ) :   1.9107
B(  3-C , 11-H ) :   0.9694 B(  4-N ,  5-N ) :   0.9933 B(  5-N ,  6-C ) :   1.9093
B(  6-C , 12-H ) :   0.9670

FINAL SINGLE POINT ENERGY      -340.010991231623

DIPOLE MOMENT
-------------
                                X             Y             Z
Electronic contribution:     -1.67873       4.31424      -4.39001
Nuclear contribution   :      2.45356      -5.37021       5.64546
                        -----------------------------------------
Total Dipole Moment    :      0.77483      -1.05597       1.25544
                        -----------------------------------------
Magnitude (a.u.)       :      1.81427
Magnitude (Debye)      :      4.61151

                             ****ORCA TERMINATED NORMALLY****
TOTAL RUN TIME: 0 days 0 hours 0 minutes 5 seconds 848 msec
