                         Program Version 3.0.3 - RELEASE   -
|  1> ! RI PBE def2-SVP def2-SVP/J NBO PAL2
|  2> % maxcore 2000
|  3> % output
|  4>     # printlevel mini
|  5>     print[ P_Basis ] 0
|  6>     print[ P_SCFInfo ] 1
|  7>     print[ P_SCFIterInfo ] 1
|  8>     print[ P_OrbEn ] 0
|  9>     print[ P_Cartesian ] 0
| 10> end
| 11> *xyz 0 1
| 12>  C        1.9544830000     0.5236640000     1.6776600000
| 13>  O        2.2832590000    -0.0024250000     0.4187710000
| 14>  C        3.0208960000    -1.2003740000     0.4856660000
| 15>  C        3.5911250000    -1.5319530000    -0.8924600000
| 16>  N        3.3905080000    -2.9789730000    -0.9899990000
| 17>  N        2.4044740000    -3.3658270000    -0.1187940000
| 18>  C        2.2029900000    -2.4422940000     0.7350830000
| 19>  H        1.4400840000     1.4694670000     1.5076290000
| 20>  H        2.8539280000     0.7108230000     2.2803640000
| 21>  H        1.2884200000    -0.1392710000     2.2441750000
| 22>  H        3.8122860000    -1.0906850000     1.2448120000
| 23>  H        4.6443420000    -1.2732390000    -0.9977670000
| 24>  H        3.0077420000    -0.9789060000    -1.6389070000
| 25>  H        3.2146710000    -3.3505000000    -1.9115690000
| 26>  H        1.5149130000    -2.5977050000     1.5557140000
| 27> *
| 28>
| 29>                          ****END OF INPUT****
 Total Charge           Charge          ....    0
 Multiplicity           Mult            ....    1
 Number of Electrons    NEL             ....   54
 Basis Dimension        Dim             ....  138

MULLIKEN ATOMIC CHARGES
-----------------------
   0 C :    0.144260
   1 O :   -0.331422
   2 C :    0.030489
   3 C :    0.196571
   4 N :   -0.159350
   5 N :   -0.090627
   6 C :   -0.034742
   7 H :    0.035675
   8 H :    0.007784
   9 H :    0.011972
  10 H :    0.010726
  11 H :    0.018208
  12 H :    0.027712
  13 H :    0.118550
  14 H :    0.014195
Sum of atomic charges:   -0.0000000

LOEWDIN ATOMIC CHARGES
----------------------
   0 C :    0.049719
   1 O :   -0.140047
   2 C :    0.025627
   3 C :    0.012089
   4 N :   -0.015780
   5 N :   -0.031038
   6 C :   -0.082260
   7 H :    0.025528
   8 H :    0.006800
   9 H :    0.006416
  10 H :    0.012809
  11 H :    0.026097
  12 H :    0.025438
  13 H :    0.060796
  14 H :    0.017803

  Mayer bond orders larger than 0.1
B(  0-C ,  1-O ) :   1.0120 B(  0-C ,  7-H ) :   0.9754 B(  0-C ,  8-H ) :   0.9531
B(  0-C ,  9-H ) :   0.9580 B(  1-O ,  2-C ) :   1.0207 B(  2-C ,  3-C ) :   1.0600
B(  2-C ,  6-C ) :   0.9907 B(  2-C , 10-H ) :   0.8742 B(  3-C ,  4-N ) :   0.9789
B(  3-C , 11-H ) :   0.9259 B(  3-C , 12-H ) :   0.9243 B(  4-N ,  5-N ) :   1.1101
B(  4-N ,  6-C ) :   0.1199 B(  4-N , 13-H ) :   0.9393 B(  5-N ,  6-C ) :   1.8700
B(  6-C , 14-H ) :   0.9755

FINAL SINGLE POINT ENERGY      -341.237582792591

DIPOLE MOMENT
-------------
                                X             Y             Z
Electronic contribution:     -0.04309      -3.99360      -2.48563
Nuclear contribution   :      0.26105       4.60294       2.54674
                        -----------------------------------------
Total Dipole Moment    :      0.21796       0.60934       0.06110
                        -----------------------------------------
Magnitude (a.u.)       :      0.65003
Magnitude (Debye)      :      1.65224

                             ****ORCA TERMINATED NORMALLY****
TOTAL RUN TIME: 0 days 0 hours 0 minutes 7 seconds 216 msec
