                         Program Version 3.0.3 - RELEASE   -
|  1> ! RI PBE def2-SVP def2-SVP/J NBO PAL2
|  2> % maxcore 2000
|  3> % output
|  4>     # printlevel mini
|  5>     print[ P_Basis ] 0
|  6>     print[ P_SCFInfo ] 1
|  7>     print[ P_SCFIterInfo ] 1
|  8>     print[ P_OrbEn ] 0
|  9>     print[ P_Cartesian ] 0
| 10> end
| 11> *xyz 0 1
| 12>  C        3.1110080000    -1.1857520000     0.5525870000
| 13>  O        2.3442490000    -0.0185690000     0.3808440000
| 14>  C        3.0572510000     1.1131560000     0.2112710000
| 15>  C        2.5055000000     2.3621100000     0.0271430000
| 16>  N        3.5564980000     3.2022310000    -0.0999640000
| 17>  N        4.7335450000     2.6030380000    -0.0136770000
| 18>  C        4.4504420000     1.3196420000     0.1774690000
| 19>  H        2.4068050000    -2.0069560000     0.6760920000
| 20>  H        3.7462840000    -1.1176620000     1.4433970000
| 21>  H        3.7424840000    -1.3799620000    -0.3222140000
| 22>  H        1.4801650000     2.6891650000    -0.0190790000
| 23>  H        3.5236790000     4.1951000000    -0.2472700000
| 24>  H        5.2507010000     0.6039690000     0.2819020000
| 25> *
| 26>
| 27>                          ****END OF INPUT****
 Total Charge           Charge          ....    0
 Multiplicity           Mult            ....    1
 Number of Electrons    NEL             ....   52
 Basis Dimension        Dim             ....  128

MULLIKEN ATOMIC CHARGES
-----------------------
   0 C :    0.147917
   1 O :   -0.270382
   2 C :    0.083032
   3 C :    0.033846
   4 N :   -0.016383
   5 N :   -0.113383
   6 C :   -0.061425
   7 H :    0.037176
   8 H :    0.024412
   9 H :    0.024526
  10 H :   -0.008731
  11 H :    0.128627
  12 H :   -0.009232
Sum of atomic charges:    0.0000000

LOEWDIN ATOMIC CHARGES
----------------------
   0 C :    0.062629
   1 O :   -0.078754
   2 C :   -0.038739
   3 C :   -0.061612
   4 N :    0.138049
   5 N :   -0.097656
   6 C :   -0.103242
   7 H :    0.027060
   8 H :    0.014158
   9 H :    0.014043
  10 H :    0.024441
  11 H :    0.081579
  12 H :    0.018045

  Mayer bond orders larger than 0.1
B(  0-C ,  1-O ) :   0.9895 B(  0-C ,  7-H ) :   0.9753 B(  0-C ,  8-H ) :   0.9593
B(  0-C ,  9-H ) :   0.9591 B(  1-O ,  2-C ) :   1.1478 B(  2-C ,  3-C ) :   1.3963
B(  2-C ,  6-C ) :   1.2720 B(  3-C ,  4-N ) :   1.1929 B(  3-C ,  5-N ) :   0.1539
B(  3-C , 10-H ) :   0.9897 B(  4-N ,  5-N ) :   1.2149 B(  4-N , 11-H ) :   0.9469
B(  5-N ,  6-C ) :   1.5396 B(  6-C , 12-H ) :   0.9976

FINAL SINGLE POINT ENERGY      -340.071193205864

DIPOLE MOMENT
-------------
                                X             Y             Z
Electronic contribution:     -0.30133       4.52405      -0.67094
Nuclear contribution   :     -0.12733      -4.51109       0.67047
                        -----------------------------------------
Total Dipole Moment    :     -0.42866       0.01296      -0.00046
                        -----------------------------------------
Magnitude (a.u.)       :      0.42886
Magnitude (Debye)      :      1.09008

                             ****ORCA TERMINATED NORMALLY****
TOTAL RUN TIME: 0 days 0 hours 0 minutes 5 seconds 308 msec
