                         Program Version 3.0.3 - RELEASE   -
|  1> ! RI PBE def2-SVP def2-SVP/J NBO PAL2
|  2> % maxcore 2000
|  3> % output
|  4>     # printlevel mini
|  5>     print[ P_Basis ] 0
|  6>     print[ P_SCFInfo ] 1
|  7>     print[ P_SCFIterInfo ] 1
|  8>     print[ P_OrbEn ] 0
|  9>     print[ P_Cartesian ] 0
| 10> end
| 11> *xyz 0 1
| 12>  C        1.2354330000    -0.3438410000    -0.3763180000
| 13>  O        2.3100660000     0.2118200000     0.3497260000
| 14>  C        3.0008760000    -0.6514610000     1.1121170000
| 15>  C        4.0688080000    -0.3504480000     1.8948190000
| 16>  O        4.4980290000    -1.4608340000     2.5073920000
| 17>  N        3.7220260000    -2.5177930000     2.1415180000
| 18>  C        2.8300720000    -2.0459240000     1.3127630000
| 19>  H        0.7850550000     0.4742190000    -0.9350980000
| 20>  H        0.4857720000    -0.7783560000     0.2939700000
| 21>  H        1.5837930000    -1.1103770000    -1.0771390000
| 22>  H        4.6012030000     0.5631110000     2.1002410000
| 23>  H        2.0985570000    -2.7175960000     0.8892970000
| 24> *
| 25>
| 26>                          ****END OF INPUT****
 Total Charge           Charge          ....    0
 Multiplicity           Mult            ....    1
 Number of Electrons    NEL             ....   52
 Basis Dimension        Dim             ....  123

MULLIKEN ATOMIC CHARGES
-----------------------
   0 C :    0.143526
   1 O :   -0.264025
   2 C :    0.093143
   3 C :    0.097204
   4 O :   -0.145004
   5 N :   -0.018188
   6 C :   -0.049668
   7 H :    0.046051
   8 H :    0.030679
   9 H :    0.031186
  10 H :    0.023374
  11 H :    0.011721
Sum of atomic charges:   -0.0000000

LOEWDIN ATOMIC CHARGES
----------------------
   0 C :    0.066863
   1 O :   -0.071773
   2 C :   -0.046212
   3 C :   -0.007006
   4 O :    0.050845
   5 N :   -0.035490
   6 C :   -0.082101
   7 H :    0.031206
   8 H :    0.017072
   9 H :    0.017008
  10 H :    0.029531
  11 H :    0.030057

  Mayer bond orders larger than 0.1
B(  0-C ,  1-O ) :   0.9766 B(  0-C ,  7-H ) :   0.9754 B(  0-C ,  8-H ) :   0.9611
B(  0-C ,  9-H ) :   0.9604 B(  1-O ,  2-C ) :   1.1586 B(  2-C ,  3-C ) :   1.4832
B(  2-C ,  6-C ) :   1.1829 B(  3-C ,  4-O ) :   1.1498 B(  3-C ,  5-N ) :   0.1498
B(  3-C , 10-H ) :   0.9887 B(  4-O ,  5-N ) :   1.0492 B(  5-N ,  6-C ) :   1.6410
B(  6-C , 11-H ) :   0.9860

FINAL SINGLE POINT ENERGY      -359.875576101272

DIPOLE MOMENT
-------------
                                X             Y             Z
Electronic contribution:      4.61346      -0.82945       3.90003
Nuclear contribution   :     -5.43479       1.36892      -4.68417
                        -----------------------------------------
Total Dipole Moment    :     -0.82133       0.53947      -0.78415
                        -----------------------------------------
Magnitude (a.u.)       :      1.25718
Magnitude (Debye)      :      3.19549

                             ****ORCA TERMINATED NORMALLY****
TOTAL RUN TIME: 0 days 0 hours 0 minutes 5 seconds 397 msec
