                         Program Version 3.0.3 - RELEASE   -
|  1> ! RI PBE def2-SVP def2-SVP/J NBO PAL2
|  2> % maxcore 2000
|  3> % output
|  4>     # printlevel mini
|  5>     print[ P_Basis ] 0
|  6>     print[ P_SCFInfo ] 1
|  7>     print[ P_SCFIterInfo ] 1
|  8>     print[ P_OrbEn ] 0
|  9>     print[ P_Cartesian ] 0
| 10> end
| 11> *xyz 0 1
| 12>  C        2.2328630000    -0.7448120000     0.7723710000
| 13>  O        2.5884150000     0.4240100000     0.0523560000
| 14>  C        3.1227910000     0.2303670000    -1.1542320000
| 15>  C        3.5389430000     1.1855900000    -2.0229790000
| 16>  O        4.0139950000     0.5335090000    -3.1264920000
| 17>  C        3.8549480000    -0.7612800000    -2.8540240000
| 18>  N        3.3316680000    -1.0105800000    -1.7006500000
| 19>  H        1.8203180000    -0.3944110000     1.7165910000
| 20>  H        3.1057760000    -1.3752600000     0.9563790000
| 21>  H        1.4851610000    -1.3290340000     0.2311480000
| 22>  H        3.5686520000     2.2592940000    -2.0205170000
| 23>  H        4.1706600000    -1.4684730000    -3.6049400000
| 24> *
| 25>
| 26>                          ****END OF INPUT****
 Total Charge           Charge          ....    0
 Multiplicity           Mult            ....    1
 Number of Electrons    NEL             ....   52
 Basis Dimension        Dim             ....  123

MULLIKEN ATOMIC CHARGES
-----------------------
   0 C :    0.162340
   1 O :   -0.264587
   2 C :    0.126038
   3 C :    0.019358
   4 O :   -0.150116
   5 C :    0.133056
   6 N :   -0.163002
   7 H :    0.035020
   8 H :    0.030577
   9 H :    0.029862
  10 H :    0.013896
  11 H :    0.027558
Sum of atomic charges:   -0.0000000

LOEWDIN ATOMIC CHARGES
----------------------
   0 C :    0.068943
   1 O :   -0.072478
   2 C :   -0.012879
   3 C :   -0.045240
   4 O :    0.041574
   5 C :    0.027869
   6 N :   -0.116900
   7 H :    0.025188
   8 H :    0.019225
   9 H :    0.018976
  10 H :    0.024665
  11 H :    0.021058

  Mayer bond orders larger than 0.1
B(  0-C ,  1-O ) :   0.9552 B(  0-C ,  7-H ) :   0.9754 B(  0-C ,  8-H ) :   0.9662
B(  0-C ,  9-H ) :   0.9665 B(  1-O ,  2-C ) :   1.1870 B(  2-C ,  3-C ) :   1.4945
B(  2-C ,  6-N ) :   1.2851 B(  3-C ,  4-O ) :   1.1031 B(  3-C ,  5-C ) :   0.1060
B(  3-C , 10-H ) :   0.9960 B(  4-O ,  5-C ) :   1.2219 B(  5-C ,  6-N ) :   1.6720
B(  5-C , 11-H ) :   0.9737

FINAL SINGLE POINT ENERGY      -359.921476964961

DIPOLE MOMENT
-------------
                                X             Y             Z
Electronic contribution:      1.83978       1.96550      -3.98033
Nuclear contribution   :     -1.85597      -2.04954       4.01734
                        -----------------------------------------
Total Dipole Moment    :     -0.01619      -0.08405       0.03701
                        -----------------------------------------
Magnitude (a.u.)       :      0.09325
Magnitude (Debye)      :      0.23702

                             ****ORCA TERMINATED NORMALLY****
TOTAL RUN TIME: 0 days 0 hours 0 minutes 5 seconds 570 msec
