                         Program Version 3.0.3 - RELEASE   -
|  1> ! RI PBE def2-SVP def2-SVP/J NBO PAL2
|  2> % maxcore 2000
|  3> % output
|  4>     # printlevel mini
|  5>     print[ P_Basis ] 0
|  6>     print[ P_SCFInfo ] 1
|  7>     print[ P_SCFIterInfo ] 1
|  8>     print[ P_OrbEn ] 0
|  9>     print[ P_Cartesian ] 0
| 10> end
| 11> *xyz 0 1
| 12>  C        1.9077090000     1.4932010000     0.3913940000
| 13>  O        2.2779370000     0.1617710000     0.1398050000
| 14>  C        2.8650490000    -0.4809720000     1.2489280000
| 15>  C        3.3965080000    -1.8424470000     0.8445080000
| 16>  O        2.4743020000    -2.8039060000     1.3782500000
| 17>  N        1.6455100000    -2.1816340000     2.2696180000
| 18>  C        1.8527410000    -0.9281710000     2.2690970000
| 19>  H        1.5513440000     1.9104700000    -0.5499850000
| 20>  H        2.7641590000     2.0855290000     0.7421470000
| 21>  H        1.1029010000     1.5679740000     1.1329460000
| 22>  H        3.6431360000     0.1654330000     1.6762670000
| 23>  H        4.3797110000    -2.0402680000     1.2789890000
| 24>  H        3.4331970000    -1.9519370000    -0.2394170000
| 25>  H        1.2648960000    -0.2984560000     2.9230420000
| 26> *
| 27>
| 28>                          ****END OF INPUT****
 Total Charge           Charge          ....    0
 Multiplicity           Mult            ....    1
 Number of Electrons    NEL             ....   54
 Basis Dimension        Dim             ....  133

MULLIKEN ATOMIC CHARGES
-----------------------
   0 C :    0.141665
   1 O :   -0.327828
   2 C :    0.006738
   3 C :    0.268241
   4 O :   -0.268562
   5 N :    0.029136
   6 C :   -0.030494
   7 H :    0.040664
   8 H :    0.009004
   9 H :    0.015532
  10 H :    0.013694
  11 H :    0.029195
  12 H :    0.042728
  13 H :    0.030286
Sum of atomic charges:    0.0000000

LOEWDIN ATOMIC CHARGES
----------------------
   0 C :    0.050434
   1 O :   -0.137755
   2 C :    0.015549
   3 C :    0.059806
   4 O :   -0.081793
   5 N :    0.023928
   6 C :   -0.080456
   7 H :    0.028000
   8 H :    0.007367
   9 H :    0.007731
  10 H :    0.015527
  11 H :    0.027955
  12 H :    0.036484
  13 H :    0.027223

  Mayer bond orders larger than 0.1
B(  0-C ,  1-O ) :   1.0055 B(  0-C ,  7-H ) :   0.9759 B(  0-C ,  8-H ) :   0.9525
B(  0-C ,  9-H ) :   0.9597 B(  1-O ,  2-C ) :   1.0055 B(  2-C ,  3-C ) :   1.0664
B(  2-C ,  6-C ) :   0.9729 B(  2-C , 10-H ) :   0.9015 B(  3-C ,  4-O ) :   0.9395
B(  3-C , 11-H ) :   0.9315 B(  3-C , 12-H ) :   0.9265 B(  4-O ,  5-N ) :   1.0142
B(  4-O ,  6-C ) :   0.1249 B(  5-N ,  6-C ) :   1.8729 B(  6-C , 13-H ) :   0.9684

FINAL SINGLE POINT ENERGY      -361.056805254779

DIPOLE MOMENT
-------------
                                X             Y             Z
Electronic contribution:     -0.97284      -6.09081       1.24144
Nuclear contribution   :      1.57254       7.33907      -1.28066
                        -----------------------------------------
Total Dipole Moment    :      0.59970       1.24826      -0.03922
                        -----------------------------------------
Magnitude (a.u.)       :      1.38540
Magnitude (Debye)      :      3.52141

                             ****ORCA TERMINATED NORMALLY****
TOTAL RUN TIME: 0 days 0 hours 0 minutes 6 seconds 311 msec
