                         Program Version 3.0.3 - RELEASE   -
|  1> ! RI PBE def2-SVP def2-SVP/J NBO PAL2
|  2> % maxcore 2000
|  3> % output
|  4>     # printlevel mini
|  5>     print[ P_Basis ] 0
|  6>     print[ P_SCFInfo ] 1
|  7>     print[ P_SCFIterInfo ] 1
|  8>     print[ P_OrbEn ] 0
|  9>     print[ P_Cartesian ] 0
| 10> end
| 11> *xyz 0 1
| 12>  C        1.3337830000     0.6562780000     0.5011070000
| 13>  O        2.3224360000     0.0834980000    -0.3242480000
| 14>  C        2.9264640000     0.8576510000    -1.2305380000
| 15>  N        3.8250870000     0.4022620000    -2.0045310000
| 16>  C        4.2455740000     1.5173290000    -2.8416890000
| 17>  C        3.4092740000     2.7567540000    -2.4108180000
| 18>  N        2.5976110000     2.1806250000    -1.3607520000
| 19>  H        0.9837160000    -0.1429240000     1.1515070000
| 20>  H        0.4854460000     1.0297420000    -0.0824100000
| 21>  H        1.7413070000     1.4605460000     1.1229870000
| 22>  H        4.0854350000     1.2774430000    -3.8972890000
| 23>  H        5.3175570000     1.6986530000    -2.7175490000
| 24>  H        2.7934910000     3.1497360000    -3.2259270000
| 25>  H        4.0343460000     3.5727610000    -2.0346560000
| 26>  H        1.9150740000     2.6790670000    -0.8257760000
| 27> *
| 28>
| 29>                          ****END OF INPUT****
 Total Charge           Charge          ....    0
 Multiplicity           Mult            ....    1
 Number of Electrons    NEL             ....   54
 Basis Dimension        Dim             ....  138

MULLIKEN ATOMIC CHARGES
-----------------------
   0 C :    0.121872
   1 O :   -0.236712
   2 C :    0.134482
   3 N :   -0.224599
   4 C :    0.059562
   5 C :    0.127630
   6 N :   -0.256051
   7 H :    0.050871
   8 H :    0.027671
   9 H :    0.026716
  10 H :    0.018002
  11 H :    0.021321
  12 H :    0.015350
  13 H :    0.013792
  14 H :    0.100092
Sum of atomic charges:   -0.0000000

LOEWDIN ATOMIC CHARGES
----------------------
   0 C :    0.058162
   1 O :   -0.058063
   2 C :    0.023780
   3 N :   -0.199699
   4 C :    0.011385
   5 C :    0.020834
   6 N :   -0.047749
   7 H :    0.034426
   8 H :    0.013270
   9 H :    0.013048
  10 H :    0.019478
  11 H :    0.020224
  12 H :    0.015063
  13 H :    0.014555
  14 H :    0.061287

  Mayer bond orders larger than 0.1
B(  0-C ,  1-O ) :   0.9820 B(  0-C ,  7-H ) :   0.9756 B(  0-C ,  8-H ) :   0.9611
B(  0-C ,  9-H ) :   0.9608 B(  1-O ,  2-C ) :   1.1791 B(  2-C ,  3-N ) :   1.7816
B(  2-C ,  6-N ) :   1.1253 B(  3-N ,  4-C ) :   1.0937 B(  3-N ,  6-N ) :   0.1110
B(  4-C ,  5-C ) :   1.0611 B(  4-C , 10-H ) :   0.9381 B(  4-C , 11-H ) :   0.9382
B(  5-C ,  6-N ) :   1.0107 B(  5-C , 12-H ) :   0.9428 B(  5-C , 13-H ) :   0.9430
B(  6-N , 14-H ) :   0.9281

FINAL SINGLE POINT ENERGY      -341.273676362325

DIPOLE MOMENT
-------------
                                X             Y             Z
Electronic contribution:      0.86004      -3.28384       0.27144
Nuclear contribution   :     -1.84067       4.66240       0.25463
                        -----------------------------------------
Total Dipole Moment    :     -0.98063       1.37856       0.52607
                        -----------------------------------------
Magnitude (a.u.)       :      1.77167
Magnitude (Debye)      :      4.50322

                             ****ORCA TERMINATED NORMALLY****
TOTAL RUN TIME: 0 days 0 hours 0 minutes 6 seconds 819 msec
