                         Program Version 3.0.3 - RELEASE   -
|  1> ! RI PBE def2-SVP def2-SVP/J NBO PAL2
|  2> % maxcore 2000
|  3> % output
|  4>     # printlevel mini
|  5>     print[ P_Basis ] 0
|  6>     print[ P_SCFInfo ] 1
|  7>     print[ P_SCFIterInfo ] 1
|  8>     print[ P_OrbEn ] 0
|  9>     print[ P_Cartesian ] 0
| 10> end
| 11> *xyz 0 1
| 12>  C        1.3912480000    -0.8208210000    -0.5552680000
| 13>  O        2.2625920000    -0.0275730000     0.2141790000
| 14>  C        2.9575420000    -0.6426440000     1.1755350000
| 15>  N        3.7934490000    -0.0257730000     1.9549010000
| 16>  C        4.2862070000    -1.0010800000     2.7862720000
| 17>  C        3.7387570000    -2.2113260000     2.4996960000
| 18>  N        2.8729310000    -1.9711390000     1.4482700000
| 19>  H        0.9222600000    -0.1524490000    -1.2742380000
| 20>  H        0.6094510000    -1.2772770000     0.0635480000
| 21>  H        1.9337120000    -1.6015430000    -1.1018150000
| 22>  H        5.0132370000    -0.7684660000     3.5485900000
| 23>  H        3.8685140000    -3.1940710000     2.9202530000
| 24>  H        2.2999010000    -2.6527470000     0.9857960000
| 25> *
| 26>
| 27>                          ****END OF INPUT****
 Total Charge           Charge          ....    0
 Multiplicity           Mult            ....    1
 Number of Electrons    NEL             ....   52
 Basis Dimension        Dim             ....  128

MULLIKEN ATOMIC CHARGES
-----------------------
   0 C :    0.123789
   1 O :   -0.231194
   2 C :    0.123121
   3 N :   -0.139457
   4 C :   -0.001225
   5 C :    0.029529
   6 N :   -0.104469
   7 H :    0.054178
   8 H :    0.024182
   9 H :    0.024552
  10 H :   -0.005417
  11 H :   -0.008762
  12 H :    0.111174
Sum of atomic charges:   -0.0000000

LOEWDIN ATOMIC CHARGES
----------------------
   0 C :    0.058562
   1 O :   -0.056230
   2 C :    0.009604
   3 N :   -0.134895
   4 C :   -0.045421
   5 C :   -0.065779
   6 N :    0.060497
   7 H :    0.036131
   8 H :    0.011895
   9 H :    0.011989
  10 H :    0.017963
  11 H :    0.018450
  12 H :    0.077233

  Mayer bond orders larger than 0.1
B(  0-C ,  1-O ) :   0.9848 B(  0-C ,  7-H ) :   0.9759 B(  0-C ,  8-H ) :   0.9573
B(  0-C ,  9-H ) :   0.9573 B(  1-O ,  2-C ) :   1.1748 B(  2-C ,  3-N ) :   1.6278
B(  2-C ,  6-N ) :   1.1903 B(  3-N ,  4-C ) :   1.3546 B(  4-C ,  5-C ) :   1.5369
B(  4-C , 10-H ) :   0.9942 B(  5-C ,  6-N ) :   1.1369 B(  5-C , 11-H ) :   0.9799
B(  6-N , 12-H ) :   0.9244

FINAL SINGLE POINT ENERGY      -340.091055636624

DIPOLE MOMENT
-------------
                                X             Y             Z
Electronic contribution:      2.10658       2.11777       1.80703
Nuclear contribution   :     -3.07480      -3.62618      -2.48682
                        -----------------------------------------
Total Dipole Moment    :     -0.96822      -1.50840      -0.67979
                        -----------------------------------------
Magnitude (a.u.)       :      1.91699
Magnitude (Debye)      :      4.87260

                             ****ORCA TERMINATED NORMALLY****
TOTAL RUN TIME: 0 days 0 hours 0 minutes 6 seconds 354 msec
