                         Program Version 3.0.3 - RELEASE   -
|  1> ! RI PBE def2-SVP def2-SVP/J NBO PAL2
|  2> % maxcore 2000
|  3> % output
|  4>     # printlevel mini
|  5>     print[ P_Basis ] 0
|  6>     print[ P_SCFInfo ] 1
|  7>     print[ P_SCFIterInfo ] 1
|  8>     print[ P_OrbEn ] 0
|  9>     print[ P_Cartesian ] 0
| 10> end
| 11> *xyz 0 1
| 12>  C        3.2835190000    -1.2744890000     0.1171450000
| 13>  O        2.5877950000    -0.0370160000     0.0592840000
| 14>  C        3.0493210000     0.8832740000    -0.7632230000
| 15>  N        2.5456990000     2.0537820000    -0.9406070000
| 16>  C        3.3810850000     2.6217570000    -1.8867950000
| 17>  C        4.3477670000     1.7518410000    -2.2269570000
| 18>  O        4.1411360000     0.6049890000    -1.4954450000
| 19>  H        2.7445800000    -1.8771570000     0.8441750000
| 20>  H        4.3149050000    -1.1294740000     0.4455450000
| 21>  H        3.2795900000    -1.7723570000    -0.8548350000
| 22>  H        3.2205210000     3.6229130000    -2.2537210000
| 23>  H        5.1883820000     1.7537280000    -2.8975560000
| 24> *
| 25>
| 26>                          ****END OF INPUT****
 Total Charge           Charge          ....    0
 Multiplicity           Mult            ....    1
 Number of Electrons    NEL             ....   52
 Basis Dimension        Dim             ....  123

MULLIKEN ATOMIC CHARGES
-----------------------
   0 C :    0.139015
   1 O :   -0.229678
   2 C :    0.170919
   3 N :   -0.132305
   4 C :    0.017454
   5 C :    0.084765
   6 O :   -0.203553
   7 H :    0.053086
   8 H :    0.039245
   9 H :    0.041036
  10 H :    0.006957
  11 H :    0.013059
Sum of atomic charges:   -0.0000000

LOEWDIN ATOMIC CHARGES
----------------------
   0 C :    0.070141
   1 O :   -0.041526
   2 C :    0.027818
   3 N :   -0.130348
   4 C :   -0.036013
   5 C :   -0.017539
   6 O :    0.001678
   7 H :    0.033062
   8 H :    0.022183
   9 H :    0.022363
  10 H :    0.025627
  11 H :    0.022553

  Mayer bond orders larger than 0.1
B(  0-C ,  1-O ) :   0.9455 B(  0-C ,  7-H ) :   0.9772 B(  0-C ,  8-H ) :   0.9660
B(  0-C ,  9-H ) :   0.9664 B(  1-O ,  2-C ) :   1.2155 B(  2-C ,  3-N ) :   1.6750
B(  2-C ,  6-O ) :   1.1507 B(  3-N ,  4-C ) :   1.2898 B(  4-C ,  5-C ) :   1.6109
B(  4-C , 10-H ) :   0.9861 B(  5-C ,  6-O ) :   1.0612 B(  5-C , 11-H ) :   0.9880

FINAL SINGLE POINT ENERGY      -359.922825425394

DIPOLE MOMENT
-------------
                                X             Y             Z
Electronic contribution:     -1.09936       2.73773      -0.47561
Nuclear contribution   :      1.91059      -3.53508       0.22646
                        -----------------------------------------
Total Dipole Moment    :      0.81122      -0.79734      -0.24915
                        -----------------------------------------
Magnitude (a.u.)       :      1.16444
Magnitude (Debye)      :      2.95976

                             ****ORCA TERMINATED NORMALLY****
TOTAL RUN TIME: 0 days 0 hours 0 minutes 5 seconds 936 msec
