                         Program Version 3.0.3 - RELEASE   -
|  1> ! RI PBE def2-SVP def2-SVP/J NBO PAL2
|  2> % maxcore 2000
|  3> % output
|  4>     # printlevel mini
|  5>     print[ P_Basis ] 0
|  6>     print[ P_SCFInfo ] 1
|  7>     print[ P_SCFIterInfo ] 1
|  8>     print[ P_OrbEn ] 0
|  9>     print[ P_Cartesian ] 0
| 10> end
| 11> *xyz 0 1
| 12>  C        1.1899760000     0.1875960000    -0.6513040000
| 13>  O        2.4836360000     0.1289080000    -0.0910860000
| 14>  C        3.1349950000     1.2925900000     0.0561340000
| 15>  N        4.3973630000     1.3076190000     0.1923020000
| 16>  N        4.7787610000     2.6069950000     0.5424640000
| 17>  C        3.7167510000     3.5147510000     0.0971210000
| 18>  C        2.4822600000     2.6374460000     0.2526530000
| 19>  H        0.8296510000    -0.8389460000    -0.6897790000
| 20>  H        1.2104740000     0.5957520000    -1.6675070000
| 21>  H        0.5058850000     0.7801980000    -0.0358660000
| 22>  H        5.6784780000     2.7992370000     0.1238490000
| 23>  H        3.8352540000     3.7925540000    -0.9608930000
| 24>  H        3.6956490000     4.4230250000     0.7003290000
| 25>  H        1.6926510000     2.8699600000    -0.4612800000
| 26>  H        2.0572170000     2.6951250000     1.2630540000
| 27> *
| 28>
| 29>                          ****END OF INPUT****
 Total Charge           Charge          ....    0
 Multiplicity           Mult            ....    1
 Number of Electrons    NEL             ....   54
 Basis Dimension        Dim             ....  138

MULLIKEN ATOMIC CHARGES
-----------------------
   0 C :    0.135686
   1 O :   -0.240556
   2 C :   -0.011752
   3 N :   -0.104321
   4 N :   -0.153613
   5 C :    0.132003
   6 C :   -0.056881
   7 H :    0.044607
   8 H :    0.025704
   9 H :    0.030703
  10 H :    0.111238
  11 H :    0.005003
  12 H :    0.011661
  13 H :    0.030433
  14 H :    0.040085
Sum of atomic charges:   -0.0000000

LOEWDIN ATOMIC CHARGES
----------------------
   0 C :    0.062231
   1 O :   -0.063855
   2 C :   -0.033893
   3 N :   -0.086196
   4 N :   -0.034794
   5 C :    0.013905
   6 C :   -0.074306
   7 H :    0.030208
   8 H :    0.014119
   9 H :    0.013980
  10 H :    0.055314
  11 H :    0.010042
  12 H :    0.022750
  13 H :    0.031896
  14 H :    0.038599

  Mayer bond orders larger than 0.1
B(  0-C ,  1-O ) :   0.9815 B(  0-C ,  7-H ) :   0.9766 B(  0-C ,  8-H ) :   0.9588
B(  0-C ,  9-H ) :   0.9602 B(  1-O ,  2-C ) :   1.1680 B(  2-C ,  3-N ) :   1.8232
B(  2-C ,  6-C ) :   1.0097 B(  3-N ,  4-N ) :   1.0299 B(  4-N ,  5-C ) :   1.0061
B(  4-N , 10-H ) :   0.9400 B(  5-C ,  6-C ) :   1.1062 B(  5-C , 11-H ) :   0.9287
B(  5-C , 12-H ) :   0.9308 B(  6-C , 13-H ) :   0.9325 B(  6-C , 14-H ) :   0.8851

FINAL SINGLE POINT ENERGY      -341.246490322113

DIPOLE MOMENT
-------------
                                X             Y             Z
Electronic contribution:      4.27956      -2.78792       1.39136
Nuclear contribution   :     -5.25766       3.60891      -1.93036
                        -----------------------------------------
Total Dipole Moment    :     -0.97810       0.82099      -0.53901
                        -----------------------------------------
Magnitude (a.u.)       :      1.38609
Magnitude (Debye)      :      3.52315

                             ****ORCA TERMINATED NORMALLY****
TOTAL RUN TIME: 0 days 0 hours 0 minutes 7 seconds 29 msec
