                         Program Version 3.0.3 - RELEASE   -
|  1> ! RI PBE def2-SVP def2-SVP/J NBO PAL2
|  2> % maxcore 2000
|  3> % output
|  4>     # printlevel mini
|  5>     print[ P_Basis ] 0
|  6>     print[ P_SCFInfo ] 1
|  7>     print[ P_SCFIterInfo ] 1
|  8>     print[ P_OrbEn ] 0
|  9>     print[ P_Cartesian ] 0
| 10> end
| 11> *xyz 0 1
| 12>  C        1.8355560000    -0.4185490000     0.7844870000
| 13>  O        2.6346170000     0.2578310000    -0.1652580000
| 14>  C        3.1613000000    -0.4611160000    -1.1485140000
| 15>  N        3.8962920000     0.0862810000    -2.0445030000
| 16>  N        4.3040900000    -0.9200710000    -2.9440120000
| 17>  C        3.8176400000    -2.0462880000    -2.5856460000
| 18>  C        2.9922000000    -1.9330840000    -1.3557890000
| 19>  H        1.5052740000     0.3368310000     1.4942270000
| 20>  H        2.4087760000    -1.1841640000     1.3161230000
| 21>  H        0.9598840000    -0.8775180000     0.3155200000
| 22>  H        4.0135500000    -2.9515780000    -3.1473190000
| 23>  H        3.3769940000    -2.5300860000    -0.5222310000
| 24>  H        1.9484280000    -2.2269780000    -1.5089730000
| 25> *
| 26>
| 27>                          ****END OF INPUT****
 Total Charge           Charge          ....    0
 Multiplicity           Mult            ....    1
 Number of Electrons    NEL             ....   52
 Basis Dimension        Dim             ....  128

MULLIKEN ATOMIC CHARGES
-----------------------
   0 C :    0.143687
   1 O :   -0.212681
   2 C :    0.040540
   3 N :   -0.107783
   4 N :   -0.087116
   5 C :   -0.000643
   6 C :   -0.052721
   7 H :    0.057575
   8 H :    0.028681
   9 H :    0.029083
  10 H :    0.011298
  11 H :    0.075712
  12 H :    0.074369
Sum of atomic charges:   -0.0000000

LOEWDIN ATOMIC CHARGES
----------------------
   0 C :    0.068137
   1 O :   -0.032075
   2 C :    0.003779
   3 N :   -0.105387
   4 N :   -0.038079
   5 C :   -0.030375
   6 C :   -0.088900
   7 H :    0.035757
   8 H :    0.018414
   9 H :    0.018487
  10 H :    0.021450
  11 H :    0.064588
  12 H :    0.064204

  Mayer bond orders larger than 0.1
B(  0-C ,  1-O ) :   0.9697 B(  0-C ,  7-H ) :   0.9751 B(  0-C ,  8-H ) :   0.9609
B(  0-C ,  9-H ) :   0.9609 B(  1-O ,  2-C ) :   1.2110 B(  2-C ,  3-N ) :   1.7536
B(  2-C ,  6-C ) :   1.0188 B(  3-N ,  4-N ) :   1.0387 B(  4-N ,  5-C ) :   1.8857
B(  5-C ,  6-C ) :   1.0107 B(  5-C , 10-H ) :   0.9723 B(  6-C , 11-H ) :   0.8908
B(  6-C , 12-H ) :   0.8910

FINAL SINGLE POINT ENERGY      -340.038263763625

DIPOLE MOMENT
-------------
                                X             Y             Z
Electronic contribution:      3.35488       3.06442      -3.91511
Nuclear contribution   :     -4.63196      -4.50351       5.32439
                        -----------------------------------------
Total Dipole Moment    :     -1.27708      -1.43909       1.40928
                        -----------------------------------------
Magnitude (a.u.)       :      2.38495
Magnitude (Debye)      :      6.06206

                             ****ORCA TERMINATED NORMALLY****
TOTAL RUN TIME: 0 days 0 hours 0 minutes 6 seconds 109 msec
