                         Program Version 3.0.3 - RELEASE   -
|  1> ! RI PBE def2-SVP def2-SVP/J NBO PAL2
|  2> % maxcore 2000
|  3> % output
|  4>     # printlevel mini
|  5>     print[ P_Basis ] 0
|  6>     print[ P_SCFInfo ] 1
|  7>     print[ P_SCFIterInfo ] 1
|  8>     print[ P_OrbEn ] 0
|  9>     print[ P_Cartesian ] 0
| 10> end
| 11> *xyz 0 1
| 12>  C        2.1929460000     1.7933950000    -0.6498070000
| 13>  O        2.2954870000     0.4103960000    -0.3750730000
| 14>  C        2.8587980000    -0.3550010000    -1.3153740000
| 15>  N        2.5971440000    -1.5986450000    -1.3552520000
| 16>  O        3.4056820000    -2.1941310000    -2.3175100000
| 17>  C        3.9556490000    -1.1627790000    -3.1437920000
| 18>  C        3.9175810000     0.0880000000    -2.2852720000
| 19>  H        1.7207610000     2.2393520000     0.2234440000
| 20>  H        1.5673910000     1.9797530000    -1.5285780000
| 21>  H        3.1757810000     2.2514000000    -0.7956380000
| 22>  H        3.3209190000    -1.0434940000    -4.0305420000
| 23>  H        4.9528480000    -1.4750910000    -3.4532800000
| 24>  H        3.6532920000     0.9826150000    -2.8492190000
| 25>  H        4.8533220000     0.2855310000    -1.7496060000
| 26> *
| 27>
| 28>                          ****END OF INPUT****
 Total Charge           Charge          ....    0
 Multiplicity           Mult            ....    1
 Number of Electrons    NEL             ....   54
 Basis Dimension        Dim             ....  133

MULLIKEN ATOMIC CHARGES
-----------------------
   0 C :    0.132770
   1 O :   -0.238946
   2 C :   -0.013525
   3 N :    0.018675
   4 O :   -0.289217
   5 C :    0.209643
   6 C :   -0.067285
   7 H :    0.050963
   8 H :    0.031545
   9 H :    0.032837
  10 H :    0.023285
  11 H :    0.023224
  12 H :    0.037063
  13 H :    0.048968
Sum of atomic charges:    0.0000000

LOEWDIN ATOMIC CHARGES
----------------------
   0 C :    0.065751
   1 O :   -0.057553
   2 C :   -0.036009
   3 N :   -0.034705
   4 O :   -0.106009
   5 C :    0.063727
   6 C :   -0.080744
   7 H :    0.032976
   8 H :    0.016885
   9 H :    0.015226
  10 H :    0.016440
  11 H :    0.025340
  12 H :    0.037290
  13 H :    0.041386

  Mayer bond orders larger than 0.1
B(  0-C ,  1-O ) :   0.9717 B(  0-C ,  7-H ) :   0.9766 B(  0-C ,  8-H ) :   0.9604
B(  0-C ,  9-H ) :   0.9608 B(  1-O ,  2-C ) :   1.1761 B(  2-C ,  3-N ) :   1.8090
B(  2-C ,  4-O ) :   0.1100 B(  2-C ,  6-C ) :   1.0047 B(  3-N ,  4-O ) :   0.9429
B(  4-O ,  5-C ) :   0.9671 B(  5-C ,  6-C ) :   1.1062 B(  5-C , 10-H ) :   0.9382
B(  5-C , 11-H ) :   0.9413 B(  6-C , 12-H ) :   0.9265 B(  6-C , 13-H ) :   0.8933

FINAL SINGLE POINT ENERGY      -361.063306829955

DIPOLE MOMENT
-------------
                                X             Y             Z
Electronic contribution:     -1.34746      -5.82135       1.97202
Nuclear contribution   :      1.90639       7.55918      -2.56791
                        -----------------------------------------
Total Dipole Moment    :      0.55894       1.73783      -0.59589
                        -----------------------------------------
Magnitude (a.u.)       :      1.92030
Magnitude (Debye)      :      4.88101

                             ****ORCA TERMINATED NORMALLY****
TOTAL RUN TIME: 0 days 0 hours 0 minutes 6 seconds 633 msec
