                         Program Version 3.0.3 - RELEASE   -
|  1> ! RI PBE def2-SVP def2-SVP/J NBO PAL2
|  2> % maxcore 2000
|  3> % output
|  4>     # printlevel mini
|  5>     print[ P_Basis ] 0
|  6>     print[ P_SCFInfo ] 1
|  7>     print[ P_SCFIterInfo ] 1
|  8>     print[ P_OrbEn ] 0
|  9>     print[ P_Cartesian ] 0
| 10> end
| 11> *xyz 0 1
| 12>  C        1.6181960000    -2.5431620000    -0.7258520000
| 13>  O        2.9670340000    -2.6250550000    -0.3631460000
| 14>  C        3.5856480000    -1.3621690000    -0.3161770000
| 15>  C        5.0081320000    -1.5071350000     0.1109430000
| 16>  C        6.0444700000    -1.9529480000    -0.8839550000
| 17>  C        6.0527290000    -0.5462060000    -0.3982880000
| 18>  N        7.1470700000    -0.0739040000     0.3962540000
| 19>  H        1.2163430000    -3.5567210000    -0.7377560000
| 20>  H        1.4928780000    -2.1002950000    -1.7246680000
| 21>  H        1.0410270000    -1.9407790000    -0.0093760000
| 22>  H        3.0388730000    -0.7072050000     0.3820130000
| 23>  H        3.5405060000    -0.8842910000    -1.3091260000
| 24>  H        5.1486320000    -1.8562660000     1.1294700000
| 25>  H        5.7227100000    -2.1533590000    -1.8987180000
| 26>  H        6.8300240000    -2.6107950000    -0.5295360000
| 27>  H        5.6982040000     0.1987490000    -1.1055170000
| 28>  H        7.6290020000    -0.8418120000     0.8450510000
| 29>  H        6.8271050000     0.5531520000     1.1243660000
| 30> *
| 31>
| 32>                          ****END OF INPUT****
 Total Charge           Charge          ....    0
 Multiplicity           Mult            ....    1
 Number of Electrons    NEL             ....   56
 Basis Dimension        Dim             ....  153

MULLIKEN ATOMIC CHARGES
-----------------------
   0 C :    0.152458
   1 O :   -0.346952
   2 C :    0.260859
   3 C :   -0.114073
   4 C :    0.014756
   5 C :   -0.097873
   6 N :   -0.120201
   7 H :    0.029448
   8 H :   -0.003030
   9 H :    0.001667
  10 H :   -0.007557
  11 H :   -0.028634
  12 H :    0.006431
  13 H :    0.031362
  14 H :    0.026535
  15 H :    0.022221
  16 H :    0.079114
  17 H :    0.093468
Sum of atomic charges:   -0.0000000

LOEWDIN ATOMIC CHARGES
----------------------
   0 C :    0.047906
   1 O :   -0.152094
   2 C :    0.063678
   3 C :   -0.070569
   4 C :   -0.041255
   5 C :   -0.004393
   6 N :   -0.083778
   7 H :    0.022156
   8 H :    0.002456
   9 H :    0.003213
  10 H :    0.005137
  11 H :    0.001801
  12 H :    0.022172
  13 H :    0.029176
  14 H :    0.027423
  15 H :    0.019927
  16 H :    0.051781
  17 H :    0.055263

  Mayer bond orders larger than 0.1
B(  0-C ,  1-O ) :   1.0245 B(  0-C ,  7-H ) :   0.9760 B(  0-C ,  8-H ) :   0.9535
B(  0-C ,  9-H ) :   0.9542 B(  1-O ,  2-C ) :   1.0160 B(  2-C ,  3-C ) :   1.0723
B(  2-C , 10-H ) :   0.9189 B(  2-C , 11-H ) :   0.9054 B(  3-C ,  4-C ) :   0.9771
B(  3-C ,  5-C ) :   0.8941 B(  3-C , 12-H ) :   0.9346 B(  4-C ,  5-C ) :   1.0147
B(  4-C , 13-H ) :   0.9397 B(  4-C , 14-H ) :   0.9397 B(  5-C ,  6-N ) :   1.1547
B(  5-C , 15-H ) :   0.9375 B(  6-N , 16-H ) :   0.9604 B(  6-N , 17-H ) :   0.9699

FINAL SINGLE POINT ENERGY      -326.413392633729

DIPOLE MOMENT
-------------
                                X             Y             Z
Electronic contribution:      1.81949      -0.62042       0.75267
Nuclear contribution   :     -2.15485       0.79606      -0.46071
                        -----------------------------------------
Total Dipole Moment    :     -0.33536       0.17564       0.29195
                        -----------------------------------------
Magnitude (a.u.)       :      0.47807
Magnitude (Debye)      :      1.21516

                             ****ORCA TERMINATED NORMALLY****
TOTAL RUN TIME: 0 days 0 hours 0 minutes 7 seconds 740 msec
