                         Program Version 3.0.3 - RELEASE   -
|  1> ! RI PBE def2-SVP def2-SVP/J NBO PAL2
|  2> % maxcore 2000
|  3> % output
|  4>     # printlevel mini
|  5>     print[ P_Basis ] 0
|  6>     print[ P_SCFInfo ] 1
|  7>     print[ P_SCFIterInfo ] 1
|  8>     print[ P_OrbEn ] 0
|  9>     print[ P_Cartesian ] 0
| 10> end
| 11> *xyz 0 1
| 12>  C        3.2712440000     1.5991490000     1.8599150000
| 13>  O        4.2460360000     0.8134170000     1.2340250000
| 14>  C        3.8140420000    -0.5025130000     1.0040060000
| 15>  C        4.9047840000    -1.3073230000     0.3395220000
| 16>  C        5.5623470000    -0.6599000000    -0.8959650000
| 17>  C        6.7891520000    -0.4199600000    -0.0025620000
| 18>  N        6.2118580000    -1.3108830000     1.0221010000
| 19>  H        3.6915220000     2.5947170000     2.0050990000
| 20>  H        2.9873040000     1.1867150000     2.8384710000
| 21>  H        2.3638270000     1.6822930000     1.2455020000
| 22>  H        2.9168760000    -0.5079090000     0.3630480000
| 23>  H        3.5348040000    -0.9781670000     1.9595290000
| 24>  H        4.5057080000    -2.3167780000     0.1800100000
| 25>  H        5.0690600000     0.2299770000    -1.2848300000
| 26>  H        5.7389130000    -1.3648290000    -1.7080080000
| 27>  H        6.8820590000     0.6235310000     0.3130770000
| 28>  H        7.7515770000    -0.7644420000    -0.3909210000
| 29>  H        6.1902870000    -0.9133060000     1.9528510000
| 30> *
| 31>
| 32>                          ****END OF INPUT****
 Total Charge           Charge          ....    0
 Multiplicity           Mult            ....    1
 Number of Electrons    NEL             ....   56
 Basis Dimension        Dim             ....  153

MULLIKEN ATOMIC CHARGES
-----------------------
   0 C :    0.153655
   1 O :   -0.349213
   2 C :    0.212031
   3 C :   -0.041789
   4 C :   -0.025496
   5 C :    0.143761
   6 N :   -0.249956
   7 H :    0.033499
   8 H :    0.002129
   9 H :    0.005302
  10 H :   -0.006567
  11 H :   -0.002822
  12 H :    0.001204
  13 H :    0.013073
  14 H :    0.018128
  15 H :    0.006681
  16 H :   -0.001120
  17 H :    0.087500
Sum of atomic charges:   -0.0000000

LOEWDIN ATOMIC CHARGES
----------------------
   0 C :    0.051055
   1 O :   -0.148475
   2 C :    0.047353
   3 C :    0.002498
   4 C :   -0.038905
   5 C :    0.030421
   6 N :   -0.109938
   7 H :    0.023380
   8 H :    0.005148
   9 H :    0.005831
  10 H :    0.006789
  11 H :    0.005638
  12 H :    0.015156
  13 H :    0.021588
  14 H :    0.025535
  15 H :    0.007903
  16 H :    0.006997
  17 H :    0.042025

  Mayer bond orders larger than 0.1
B(  0-C ,  1-O ) :   1.0206 B(  0-C ,  7-H ) :   0.9760 B(  0-C ,  8-H ) :   0.9546
B(  0-C ,  9-H ) :   0.9558 B(  1-O ,  2-C ) :   1.0230 B(  2-C ,  3-C ) :   1.0335
B(  2-C , 10-H ) :   0.9149 B(  2-C , 11-H ) :   0.9152 B(  3-C ,  4-C ) :   1.0937
B(  3-C ,  6-N ) :   1.1017 B(  3-C , 12-H ) :   0.8979 B(  4-C ,  5-C ) :   1.1250
B(  4-C , 13-H ) :   0.9325 B(  4-C , 14-H ) :   0.9198 B(  5-C ,  6-N ) :   1.0645
B(  5-C , 15-H ) :   0.9295 B(  5-C , 16-H ) :   0.9317 B(  6-N , 17-H ) :   0.9475

FINAL SINGLE POINT ENERGY      -326.412681018741

DIPOLE MOMENT
-------------
                                X             Y             Z
Electronic contribution:      1.86078      -1.29317       0.21707
Nuclear contribution   :     -2.51092       1.69499      -0.04646
                        -----------------------------------------
Total Dipole Moment    :     -0.65014       0.40182       0.17061
                        -----------------------------------------
Magnitude (a.u.)       :      0.78310
Magnitude (Debye)      :      1.99048

                             ****ORCA TERMINATED NORMALLY****
TOTAL RUN TIME: 0 days 0 hours 0 minutes 7 seconds 632 msec
