                         Program Version 3.0.3 - RELEASE   -
|  1> ! RI PBE def2-SVP def2-SVP/J NBO PAL2
|  2> % maxcore 2000
|  3> % output
|  4>     # printlevel mini
|  5>     print[ P_Basis ] 0
|  6>     print[ P_SCFInfo ] 1
|  7>     print[ P_SCFIterInfo ] 1
|  8>     print[ P_OrbEn ] 0
|  9>     print[ P_Cartesian ] 0
| 10> end
| 11> *xyz 0 1
| 12>  C        1.4358400000     1.8249340000    -0.2346230000
| 13>  O        2.6134960000     1.0792340000    -0.1157190000
| 14>  C        3.5077220000     1.3182950000    -1.1708010000
| 15>  C        4.7257760000     0.4559200000    -1.0043190000
| 16>  C        5.4195900000     0.5626520000     0.3255290000
| 17>  C        5.5215880000     0.1488270000    -2.2090570000
| 18>  N        4.6222570000    -0.8547820000    -1.6422930000
| 19>  H        0.8050720000     1.5858960000     0.6220490000
| 20>  H        0.8920010000     1.5757450000    -1.1565900000
| 21>  H        1.6389340000     2.9057730000    -0.2355480000
| 22>  H        3.8025070000     2.3814780000    -1.1807040000
| 23>  H        3.0355770000     1.0878390000    -2.1364620000
| 24>  H        4.7546560000     0.2421370000     1.1299210000
| 25>  H        5.7171030000     1.5948490000     0.5302560000
| 26>  H        6.3191190000    -0.0580290000     0.3445270000
| 27>  H        6.5931100000     0.0275260000    -2.0812730000
| 28>  H        5.2222640000     0.5344510000    -3.1789270000
| 29>  H        5.1496900000    -1.5412440000    -1.1129670000
| 30> *
| 31>
| 32>                          ****END OF INPUT****
 Total Charge           Charge          ....    0
 Multiplicity           Mult            ....    1
 Number of Electrons    NEL             ....   56
 Basis Dimension        Dim             ....  153

MULLIKEN ATOMIC CHARGES
-----------------------
   0 C :    0.144387
   1 O :   -0.347458
   2 C :    0.313409
   3 C :   -0.343651
   4 C :    0.122853
   5 C :    0.072696
   6 N :   -0.168447
   7 H :    0.033352
   8 H :    0.007976
   9 H :    0.003753
  10 H :   -0.012113
  11 H :   -0.019563
  12 H :    0.036754
  13 H :    0.016175
  14 H :   -0.004253
  15 H :    0.024493
  16 H :    0.021203
  17 H :    0.098433
Sum of atomic charges:   -0.0000000

LOEWDIN ATOMIC CHARGES
----------------------
   0 C :    0.048159
   1 O :   -0.145114
   2 C :    0.068174
   3 C :   -0.044805
   4 C :   -0.055324
   5 C :    0.004329
   6 N :   -0.095480
   7 H :    0.023191
   8 H :    0.006375
   9 H :    0.004196
  10 H :    0.003222
  11 H :    0.009740
  12 H :    0.034156
  13 H :    0.032691
  14 H :    0.023178
  15 H :    0.014357
  16 H :    0.017394
  17 H :    0.051558

  Mayer bond orders larger than 0.1
B(  0-C ,  1-O ) :   1.0193 B(  0-C ,  7-H ) :   0.9762 B(  0-C ,  8-H ) :   0.9563
B(  0-C ,  9-H ) :   0.9534 B(  1-O ,  2-C ) :   1.0380 B(  2-C ,  3-C ) :   1.0217
B(  2-C , 10-H ) :   0.9146 B(  2-C , 11-H ) :   0.8957 B(  3-C ,  4-C ) :   1.0731
B(  3-C ,  5-C ) :   1.0377 B(  3-C ,  6-N ) :   0.9830 B(  4-C , 12-H ) :   0.9478
B(  4-C , 13-H ) :   0.9470 B(  4-C , 14-H ) :   0.9342 B(  5-C ,  6-N ) :   1.0057
B(  5-C , 15-H ) :   0.9377 B(  5-C , 16-H ) :   0.9304 B(  6-N , 17-H ) :   0.9453

FINAL SINGLE POINT ENERGY      -326.413167852202

DIPOLE MOMENT
-------------
                                X             Y             Z
Electronic contribution:     -0.20173      -2.38779      -0.66289
Nuclear contribution   :      0.55154       2.80951       0.74001
                        -----------------------------------------
Total Dipole Moment    :      0.34981       0.42172       0.07712
                        -----------------------------------------
Magnitude (a.u.)       :      0.55332
Magnitude (Debye)      :      1.40643

                             ****ORCA TERMINATED NORMALLY****
TOTAL RUN TIME: 0 days 0 hours 0 minutes 7 seconds 851 msec
