                         Program Version 3.0.3 - RELEASE   -
|  1> ! RI PBE def2-SVP def2-SVP/J NBO PAL2
|  2> % maxcore 2000
|  3> % output
|  4>     # printlevel mini
|  5>     print[ P_Basis ] 0
|  6>     print[ P_SCFInfo ] 1
|  7>     print[ P_SCFIterInfo ] 1
|  8>     print[ P_OrbEn ] 0
|  9>     print[ P_Cartesian ] 0
| 10> end
| 11> *xyz 0 1
| 12>  C        1.5452130000    -0.2965600000     0.2868840000
| 13>  O        2.9435820000    -0.2539970000     0.2489970000
| 14>  C        3.4380210000     1.0598680000     0.2384720000
| 15>  C        4.9339080000     1.0168970000     0.2465360000
| 16>  C        5.7229720000     0.9957700000    -1.0046720000
| 17>  N        5.6120470000     2.2064560000    -0.2169660000
| 18>  C        6.7921810000     2.5998420000     0.5180550000
| 19>  H        1.2467190000    -1.3451710000     0.2973730000
| 20>  H        1.1016580000     0.1905090000    -0.5931180000
| 21>  H        1.1499030000     0.1949420000     1.1873830000
| 22>  H        3.0726320000     1.6108120000     1.1205240000
| 23>  H        3.0949280000     1.6052100000    -0.6532660000
| 24>  H        5.3722030000     0.4970270000     1.0975990000
| 25>  H        5.2174850000     1.0038180000    -1.9650160000
| 26>  H        6.6718980000     0.4648930000    -0.9849270000
| 27>  H        7.4344300000     3.2057020000    -0.1253570000
| 28>  H        7.3796150000     1.7426020000     0.8838690000
| 29>  H        6.5001070000     3.2083900000     1.3770300000
| 30> *
| 31>
| 32>                          ****END OF INPUT****
 Total Charge           Charge          ....    0
 Multiplicity           Mult            ....    1
 Number of Electrons    NEL             ....   56
 Basis Dimension        Dim             ....  153

MULLIKEN ATOMIC CHARGES
-----------------------
   0 C :    0.157493
   1 O :   -0.353434
   2 C :    0.295734
   3 C :   -0.095734
   4 C :    0.081405
   5 N :   -0.296689
   6 C :    0.086728
   7 H :    0.028356
   8 H :    0.002044
   9 H :    0.000137
  10 H :   -0.009999
  11 H :   -0.016292
  12 H :    0.015420
  13 H :    0.027482
  14 H :    0.023208
  15 H :    0.029654
  16 H :   -0.003669
  17 H :    0.028156
Sum of atomic charges:   -0.0000000

LOEWDIN ATOMIC CHARGES
----------------------
   0 C :    0.050580
   1 O :   -0.150945
   2 C :    0.061692
   3 C :   -0.008837
   4 C :    0.009139
   5 N :   -0.107592
   6 C :    0.000029
   7 H :    0.022066
   8 H :    0.004132
   9 H :    0.003581
  10 H :    0.006044
  11 H :    0.007916
  12 H :    0.014515
  13 H :    0.020639
  14 H :    0.014617
  15 H :    0.025281
  16 H :    0.002288
  17 H :    0.024853

  Mayer bond orders larger than 0.1
B(  0-C ,  1-O ) :   1.0215 B(  0-C ,  7-H ) :   0.9766 B(  0-C ,  8-H ) :   0.9562
B(  0-C ,  9-H ) :   0.9551 B(  1-O ,  2-C ) :   1.0252 B(  2-C ,  3-C ) :   1.0368
B(  2-C , 10-H ) :   0.9137 B(  2-C , 11-H ) :   0.9084 B(  3-C ,  4-C ) :   1.0586
B(  3-C ,  5-N ) :   0.9113 B(  3-C , 12-H ) :   0.9275 B(  4-C ,  5-N ) :   0.9770
B(  4-C , 13-H ) :   0.9353 B(  4-C , 14-H ) :   0.9332 B(  5-N ,  6-C ) :   1.0246
B(  6-C , 15-H ) :   0.9711 B(  6-C , 16-H ) :   0.9369 B(  6-C , 17-H ) :   0.9712

FINAL SINGLE POINT ENERGY      -326.402765906265

DIPOLE MOMENT
-------------
                                X             Y             Z
Electronic contribution:      0.03414      -0.98116      -0.76297
Nuclear contribution   :     -0.03147       1.00151       0.92700
                        -----------------------------------------
Total Dipole Moment    :      0.00267       0.02034       0.16404
                        -----------------------------------------
Magnitude (a.u.)       :      0.16531
Magnitude (Debye)      :      0.42020

                             ****ORCA TERMINATED NORMALLY****
TOTAL RUN TIME: 0 days 0 hours 0 minutes 7 seconds 674 msec
