                         Program Version 3.0.3 - RELEASE   -
|  1> ! RI PBE def2-SVP def2-SVP/J NBO PAL2
|  2> % maxcore 2000
|  3> % output
|  4>     # printlevel mini
|  5>     print[ P_Basis ] 0
|  6>     print[ P_SCFInfo ] 1
|  7>     print[ P_SCFIterInfo ] 1
|  8>     print[ P_OrbEn ] 0
|  9>     print[ P_Cartesian ] 0
| 10> end
| 11> *xyz 0 1
| 12>  C        1.1268960000     1.6956670000    -0.3308860000
| 13>  O        2.4803740000     2.0057100000    -0.5064660000
| 14>  C        3.3175640000     0.8963970000    -0.3073980000
| 15>  C        4.7459880000     1.3168060000    -0.4965260000
| 16>  C        5.4132380000     2.1975280000     0.5733700000
| 17>  N        6.6264530000     1.3720930000     0.4500070000
| 18>  C        5.8477450000     0.2924670000    -0.1753020000
| 19>  H        0.5535470000     2.6064840000    -0.5052230000
| 20>  H        0.9230690000     1.3368560000     0.6881000000
| 21>  H        0.7937250000     0.9245530000    -1.0401290000
| 22>  H        3.0604290000     0.0924480000    -1.0176460000
| 23>  H        3.1732050000     0.4893420000     0.7075090000
| 24>  H        4.8783040000     1.7429440000    -1.4930650000
| 25>  H        4.8988260000     2.1065280000     1.5403560000
| 26>  H        5.5540990000     3.2567420000     0.3470720000
| 27>  H        7.0887790000     1.1348710000     1.3177830000
| 28>  H        5.4910630000    -0.4738610000     0.5287170000
| 29>  H        6.3424160000    -0.2047740000    -1.0138750000
| 30> *
| 31>
| 32>                          ****END OF INPUT****
 Total Charge           Charge          ....    0
 Multiplicity           Mult            ....    1
 Number of Electrons    NEL             ....   56
 Basis Dimension        Dim             ....  153

MULLIKEN ATOMIC CHARGES
-----------------------
   0 C :    0.152342
   1 O :   -0.348489
   2 C :    0.253522
   3 C :   -0.254045
   4 C :    0.179644
   5 N :   -0.281257
   6 C :    0.170319
   7 H :    0.032307
   8 H :   -0.000218
   9 H :    0.004326
  10 H :   -0.006554
  11 H :   -0.026460
  12 H :    0.023152
  13 H :   -0.010653
  14 H :    0.018004
  15 H :    0.093288
  16 H :   -0.010180
  17 H :    0.010951
Sum of atomic charges:   -0.0000000

LOEWDIN ATOMIC CHARGES
----------------------
   0 C :    0.050102
   1 O :   -0.149203
   2 C :    0.059484
   3 C :   -0.050332
   4 C :    0.032979
   5 N :   -0.115033
   6 C :    0.032569
   7 H :    0.023049
   8 H :    0.003683
   9 H :    0.004702
  10 H :    0.004692
  11 H :   -0.002405
  12 H :    0.031966
  13 H :    0.003384
  14 H :    0.013051
  15 H :    0.044996
  16 H :    0.001838
  17 H :    0.010480

  Mayer bond orders larger than 0.1
B(  0-C ,  1-O ) :   1.0211 B(  0-C ,  7-H ) :   0.9763 B(  0-C ,  8-H ) :   0.9547
B(  0-C ,  9-H ) :   0.9560 B(  1-O ,  2-C ) :   1.0345 B(  2-C ,  3-C ) :   1.0442
B(  2-C , 10-H ) :   0.9212 B(  2-C , 11-H ) :   0.9044 B(  3-C ,  4-C ) :   1.0644
B(  3-C ,  6-C ) :   1.0572 B(  3-C , 12-H ) :   0.8975 B(  4-C ,  5-N ) :   1.0494
B(  4-C , 13-H ) :   0.9240 B(  4-C , 14-H ) :   0.9379 B(  5-N ,  6-C ) :   1.0560
B(  5-N , 15-H ) :   0.9435 B(  6-C , 16-H ) :   0.9226 B(  6-C , 17-H ) :   0.9332

FINAL SINGLE POINT ENERGY      -326.409438824113

DIPOLE MOMENT
-------------
                                X             Y             Z
Electronic contribution:      2.43684       1.68690      -0.76399
Nuclear contribution   :     -2.87540      -2.19797       1.13335
                        -----------------------------------------
Total Dipole Moment    :     -0.43856      -0.51108       0.36937
                        -----------------------------------------
Magnitude (a.u.)       :      0.76810
Magnitude (Debye)      :      1.95234

                             ****ORCA TERMINATED NORMALLY****
TOTAL RUN TIME: 0 days 0 hours 0 minutes 7 seconds 414 msec
