                         Program Version 3.0.3 - RELEASE   -
|  1> ! RI PBE def2-SVP def2-SVP/J NBO PAL2
|  2> % maxcore 2000
|  3> % output
|  4>     # printlevel mini
|  5>     print[ P_Basis ] 0
|  6>     print[ P_SCFInfo ] 1
|  7>     print[ P_SCFIterInfo ] 1
|  8>     print[ P_OrbEn ] 0
|  9>     print[ P_Cartesian ] 0
| 10> end
| 11> *xyz 0 1
| 12>  C        1.3993940000     3.1672110000     0.8571380000
| 13>  O        2.7693250000     2.8840180000     0.7885810000
| 14>  C        3.0437290000     1.5119830000     0.8882160000
| 15>  C        4.5209740000     1.2737380000     0.7603540000
| 16>  N        5.3127420000     2.0586050000    -0.1785560000
| 17>  C        5.5124780000     2.2398210000     1.2633910000
| 18>  C        6.8349410000     1.8077230000     1.8192780000
| 19>  H        1.2804760000     4.2464760000     0.7601660000
| 20>  H        0.9700600000     2.8463130000     1.8161430000
| 21>  H        0.8456010000     2.6728130000     0.0471620000
| 22>  H        2.5107950000     0.9652590000     0.0929590000
| 23>  H        2.6861650000     1.1156450000     1.8520970000
| 24>  H        4.7820690000     0.2173360000     0.7820520000
| 25>  H        4.7356320000     2.8180430000    -0.5285090000
| 26>  H        5.0953860000     3.1498470000     1.6868080000
| 27>  H        7.1755820000     0.8950500000     1.3261890000
| 28>  H        6.7663970000     1.6174900000     2.8939850000
| 29>  H        7.5946330000     2.5776190000     1.6600770000
| 30> *
| 31>
| 32>                          ****END OF INPUT****
 Total Charge           Charge          ....    0
 Multiplicity           Mult            ....    1
 Number of Electrons    NEL             ....   56
 Basis Dimension        Dim             ....  153

MULLIKEN ATOMIC CHARGES
-----------------------
   0 C :    0.150628
   1 O :   -0.358257
   2 C :    0.255239
   3 C :   -0.093920
   4 N :   -0.172881
   5 C :   -0.114432
   6 C :    0.089694
   7 H :    0.036601
   8 H :    0.006480
   9 H :    0.008429
  10 H :    0.001952
  11 H :   -0.001016
  12 H :    0.015394
  13 H :    0.102479
  14 H :    0.018635
  15 H :    0.007977
  16 H :    0.021386
  17 H :    0.025612
Sum of atomic charges:    0.0000000

LOEWDIN ATOMIC CHARGES
----------------------
   0 C :    0.053238
   1 O :   -0.145948
   2 C :    0.057674
   3 C :   -0.023897
   4 N :   -0.102208
   5 C :   -0.006311
   6 C :   -0.065808
   7 H :    0.024688
   8 H :    0.006949
   9 H :    0.007324
  10 H :    0.009432
  11 H :    0.010185
  12 H :    0.022098
  13 H :    0.047805
  14 H :    0.014192
  15 H :    0.030661
  16 H :    0.028964
  17 H :    0.030962

  Mayer bond orders larger than 0.1
B(  0-C ,  1-O ) :   1.0133 B(  0-C ,  7-H ) :   0.9762 B(  0-C ,  8-H ) :   0.9571
B(  0-C ,  9-H ) :   0.9565 B(  1-O ,  2-C ) :   1.0083 B(  2-C ,  3-C ) :   1.0382
B(  2-C , 10-H ) :   0.9163 B(  2-C , 11-H ) :   0.9192 B(  3-C ,  4-N ) :   1.0078
B(  3-C ,  5-C ) :   1.0064 B(  3-C , 12-H ) :   0.9200 B(  4-N ,  5-C ) :   0.9848
B(  4-N , 13-H ) :   0.9383 B(  5-C ,  6-C ) :   1.0796 B(  5-C , 14-H ) :   0.9370
B(  6-C , 15-H ) :   0.9404 B(  6-C , 16-H ) :   0.9583 B(  6-C , 17-H ) :   0.9532

FINAL SINGLE POINT ENERGY      -326.416448233100

DIPOLE MOMENT
-------------
                                X             Y             Z
Electronic contribution:      0.25268       0.61118      -2.05089
Nuclear contribution   :     -1.11843      -0.58003       2.46141
                        -----------------------------------------
Total Dipole Moment    :     -0.86575       0.03115       0.41052
                        -----------------------------------------
Magnitude (a.u.)       :      0.95866
Magnitude (Debye)      :      2.43672

                             ****ORCA TERMINATED NORMALLY****
TOTAL RUN TIME: 0 days 0 hours 0 minutes 7 seconds 739 msec
