                         Program Version 3.0.3 - RELEASE   -
|  1> ! RI PBE def2-SVP def2-SVP/J NBO PAL2
|  2> % maxcore 2000
|  3> % output
|  4>     # printlevel mini
|  5>     print[ P_Basis ] 0
|  6>     print[ P_SCFInfo ] 1
|  7>     print[ P_SCFIterInfo ] 1
|  8>     print[ P_OrbEn ] 0
|  9>     print[ P_Cartesian ] 0
| 10> end
| 11> *xyz 0 1
| 12>  C        1.7389200000     0.1302240000    -0.9495820000
| 13>  O        3.1230730000     0.3357360000    -0.9585420000
| 14>  C        3.4993740000     1.5173150000    -0.2956360000
| 15>  C        4.9986170000     1.6124060000    -0.2747350000
| 16>  N        5.7154240000     0.5519700000     0.3743300000
| 17>  C        5.6750110000     2.2264570000    -1.4616760000
| 18>  C        5.5997670000     2.9787000000    -0.1660390000
| 19>  H        1.5395580000    -0.8055650000    -1.4726210000
| 20>  H        1.2057300000     0.9433340000    -1.4623710000
| 21>  H        1.3477890000     0.0556260000     0.0752140000
| 22>  H        3.1105870000     1.5041110000     0.7371160000
| 23>  H        3.0651770000     2.3945520000    -0.8003580000
| 24>  H        5.4439440000    -0.3360290000    -0.0324840000
| 25>  H        5.4784950000     0.5147890000     1.3597930000
| 26>  H        5.0544170000     2.5580200000    -2.2849920000
| 27>  H        6.6330870000     1.8085110000    -1.7402160000
| 28>  H        4.9352390000     3.8324540000    -0.1033680000
| 29>  H        6.5070920000     3.0577900000     0.4186570000
| 30> *
| 31>
| 32>                          ****END OF INPUT****
 Total Charge           Charge          ....    0
 Multiplicity           Mult            ....    1
 Number of Electrons    NEL             ....   56
 Basis Dimension        Dim             ....  153

MULLIKEN ATOMIC CHARGES
-----------------------
   0 C :    0.155443
   1 O :   -0.350614
   2 C :    0.301976
   3 C :   -0.253789
   4 N :   -0.129893
   5 C :    0.020647
   6 C :   -0.004070
   7 H :    0.029785
   8 H :    0.003748
   9 H :    0.001738
  10 H :   -0.022858
  11 H :   -0.036437
  12 H :    0.093699
  13 H :    0.087455
  14 H :    0.026301
  15 H :    0.024636
  16 H :    0.024453
  17 H :    0.027779
Sum of atomic charges:   -0.0000000

LOEWDIN ATOMIC CHARGES
----------------------
   0 C :    0.050027
   1 O :   -0.151907
   2 C :    0.059073
   3 C :   -0.046080
   4 N :   -0.077361
   5 C :   -0.036055
   6 C :   -0.041700
   7 H :    0.022541
   8 H :    0.004721
   9 H :    0.003912
  10 H :   -0.000880
  11 H :    0.002091
  12 H :    0.053529
  13 H :    0.052122
  14 H :    0.024510
  15 H :    0.029061
  16 H :    0.022823
  17 H :    0.029575

  Mayer bond orders larger than 0.1
B(  0-C ,  1-O ) :   1.0184 B(  0-C ,  7-H ) :   0.9760 B(  0-C ,  8-H ) :   0.9556
B(  0-C ,  9-H ) :   0.9544 B(  1-O ,  2-C ) :   1.0333 B(  2-C ,  3-C ) :   1.0282
B(  2-C , 10-H ) :   0.9079 B(  2-C , 11-H ) :   0.8887 B(  3-C ,  4-N ) :   1.1496
B(  3-C ,  5-C ) :   0.9724 B(  3-C ,  6-C ) :   0.9700 B(  4-N , 12-H ) :   0.9637
B(  4-N , 13-H ) :   0.9661 B(  5-C ,  6-C ) :   1.0496 B(  5-C , 14-H ) :   0.9441
B(  5-C , 15-H ) :   0.9350 B(  6-C , 16-H ) :   0.9429 B(  6-C , 17-H ) :   0.9315

FINAL SINGLE POINT ENERGY      -326.420025014768

DIPOLE MOMENT
-------------
                                X             Y             Z
Electronic contribution:      1.91989      -1.21698      -0.18905
Nuclear contribution   :     -2.61356       1.24216       0.45361
                        -----------------------------------------
Total Dipole Moment    :     -0.69367       0.02517       0.26456
                        -----------------------------------------
Magnitude (a.u.)       :      0.74284
Magnitude (Debye)      :      1.88814

                             ****ORCA TERMINATED NORMALLY****
TOTAL RUN TIME: 0 days 0 hours 0 minutes 7 seconds 601 msec
