                         Program Version 3.0.3 - RELEASE   -
|  1> ! RI PBE def2-SVP def2-SVP/J NBO PAL2
|  2> % maxcore 2000
|  3> % output
|  4>     # printlevel mini
|  5>     print[ P_Basis ] 0
|  6>     print[ P_SCFInfo ] 1
|  7>     print[ P_SCFIterInfo ] 1
|  8>     print[ P_OrbEn ] 0
|  9>     print[ P_Cartesian ] 0
| 10> end
| 11> *xyz 0 1
| 12>  C        1.0690870000    -0.3018440000    -2.0555050000
| 13>  O        2.4298940000    -0.0803870000    -2.2974350000
| 14>  C        3.2495060000    -0.5978810000    -1.2820900000
| 15>  C        4.6986510000    -0.3704550000    -1.6580680000
| 16>  C        5.1201060000    -1.1383520000    -2.8785380000
| 17>  C        6.5169390000    -1.5765210000    -3.0393240000
| 18>  N        5.4627210000    -2.5553030000    -2.7720660000
| 19>  H        0.5111810000     0.1286630000    -2.8874290000
| 20>  H        0.7415330000     0.1778440000    -1.1220690000
| 21>  H        0.8403650000    -1.3748140000    -1.9911860000
| 22>  H        3.0527520000    -1.6740920000    -1.1497070000
| 23>  H        3.0232520000    -0.1032870000    -0.3243310000
| 24>  H        5.3312270000    -0.6562430000    -0.8091940000
| 25>  H        4.8508850000     0.7014790000    -1.8238390000
| 26>  H        4.5530530000    -0.9058790000    -3.7748860000
| 27>  H        7.2135610000    -1.3345510000    -2.2415490000
| 28>  H        6.9621780000    -1.6392150000    -4.0263090000
| 29>  H        5.4912190000    -2.8311510000    -1.7949840000
| 30> *
| 31>
| 32>                          ****END OF INPUT****
 Total Charge           Charge          ....    0
 Multiplicity           Mult            ....    1
 Number of Electrons    NEL             ....   56
 Basis Dimension        Dim             ....  153

MULLIKEN ATOMIC CHARGES
-----------------------
   0 C :    0.149398
   1 O :   -0.349890
   2 C :    0.175385
   3 C :    0.078708
   4 C :   -0.114472
   5 C :    0.032952
   6 N :   -0.198557
   7 H :    0.033753
   8 H :    0.001083
   9 H :    0.006710
  10 H :   -0.010468
  11 H :   -0.006307
  12 H :   -0.013944
  13 H :    0.027194
  14 H :    0.031566
  15 H :    0.024109
  16 H :    0.033289
  17 H :    0.099493
Sum of atomic charges:   -0.0000000

LOEWDIN ATOMIC CHARGES
----------------------
   0 C :    0.050642
   1 O :   -0.148626
   2 C :    0.061250
   3 C :   -0.055691
   4 C :   -0.005551
   5 C :   -0.002186
   6 N :   -0.107943
   7 H :    0.023667
   8 H :    0.004055
   9 H :    0.006257
  10 H :    0.003192
  11 H :    0.003480
  12 H :    0.027507
  13 H :    0.036456
  14 H :    0.024095
  15 H :    0.012699
  16 H :    0.020326
  17 H :    0.046371

  Mayer bond orders larger than 0.1
B(  0-C ,  1-O ) :   1.0207 B(  0-C ,  7-H ) :   0.9764 B(  0-C ,  8-H ) :   0.9552
B(  0-C ,  9-H ) :   0.9562 B(  1-O ,  2-C ) :   1.0218 B(  2-C ,  3-C ) :   1.0802
B(  2-C , 10-H ) :   0.9210 B(  2-C , 11-H ) :   0.9241 B(  3-C ,  4-C ) :   1.0714
B(  3-C , 12-H ) :   0.8970 B(  3-C , 13-H ) :   0.9154 B(  4-C ,  5-C ) :   1.0469
B(  4-C ,  6-N ) :   0.9768 B(  4-C , 14-H ) :   0.9365 B(  5-C ,  6-N ) :   1.0136
B(  5-C , 15-H ) :   0.9399 B(  5-C , 16-H ) :   0.9422 B(  6-N , 17-H ) :   0.9466

FINAL SINGLE POINT ENERGY      -326.408481495715

DIPOLE MOMENT
-------------
                                X             Y             Z
Electronic contribution:      1.43479      -0.44817      -1.99170
Nuclear contribution   :     -1.53827       0.72511       2.75055
                        -----------------------------------------
Total Dipole Moment    :     -0.10348       0.27694       0.75885
                        -----------------------------------------
Magnitude (a.u.)       :      0.81440
Magnitude (Debye)      :      2.07005

                             ****ORCA TERMINATED NORMALLY****
TOTAL RUN TIME: 0 days 0 hours 0 minutes 7 seconds 682 msec
