                         Program Version 3.0.3 - RELEASE   -
|  1> ! RI PBE def2-SVP def2-SVP/J NBO PAL2
|  2> % maxcore 2000
|  3> % output
|  4>     # printlevel mini
|  5>     print[ P_Basis ] 0
|  6>     print[ P_SCFInfo ] 1
|  7>     print[ P_SCFIterInfo ] 1
|  8>     print[ P_OrbEn ] 0
|  9>     print[ P_Cartesian ] 0
| 10> end
| 11> *xyz 0 1
| 12>  C        3.8133190000     0.9519500000     0.6035260000
| 13>  O        3.0603400000     0.1239510000    -0.2510910000
| 14>  C        3.6005100000    -1.0614580000    -0.5799510000
| 15>  C        4.7778430000    -1.5619760000    -0.2030560000
| 16>  C        5.2665400000    -2.8864790000    -0.6409020000
| 17>  C        4.9335820000    -3.4439990000    -1.9647440000
| 18>  N        6.2940380000    -2.9878940000    -1.6869320000
| 19>  H        3.2259520000     1.8555980000     0.7561230000
| 20>  H        4.7766590000     1.2126620000     0.1515930000
| 21>  H        3.9922660000     0.4638700000     1.5676250000
| 22>  H        2.9303330000    -1.6141530000    -1.2296030000
| 23>  H        5.4235570000    -1.0093640000     0.4722100000
| 24>  H        5.4431440000    -3.5977560000     0.1632430000
| 25>  H        4.3179200000    -2.8480450000    -2.6302180000
| 26>  H        4.8251720000    -4.5162410000    -2.0860910000
| 27>  H        6.4243240000    -2.0694750000    -2.1011120000
| 28> *
| 29>
| 30>                          ****END OF INPUT****
 Total Charge           Charge          ....    0
 Multiplicity           Mult            ....    1
 Number of Electrons    NEL             ....   54
 Basis Dimension        Dim             ....  143

MULLIKEN ATOMIC CHARGES
-----------------------
   0 C :    0.128272
   1 O :   -0.258848
   2 C :    0.134718
   3 C :   -0.105874
   4 C :   -0.053263
   5 C :    0.030291
   6 N :   -0.194169
   7 H :    0.041893
   8 H :    0.029157
   9 H :    0.032408
  10 H :    0.011233
  11 H :    0.007063
  12 H :    0.034746
  13 H :    0.028489
  14 H :    0.033885
  15 H :    0.099999
Sum of atomic charges:   -0.0000000

LOEWDIN ATOMIC CHARGES
----------------------
   0 C :    0.060800
   1 O :   -0.063202
   2 C :    0.030884
   3 C :   -0.138504
   4 C :   -0.005017
   5 C :   -0.000403
   6 N :   -0.104572
   7 H :    0.028437
   8 H :    0.016637
   9 H :    0.017705
  10 H :    0.022070
  11 H :    0.025822
  12 H :    0.025704
  13 H :    0.013587
  14 H :    0.021368
  15 H :    0.048685

  Mayer bond orders larger than 0.1
B(  0-C ,  1-O ) :   0.9882 B(  0-C ,  7-H ) :   0.9724 B(  0-C ,  8-H ) :   0.9581
B(  0-C ,  9-H ) :   0.9588 B(  1-O ,  2-C ) :   1.1664 B(  1-O ,  3-C ) :   0.1007
B(  2-C ,  3-C ) :   1.7418 B(  2-C , 10-H ) :   0.9659 B(  3-C ,  4-C ) :   1.0403
B(  3-C , 11-H ) :   0.9526 B(  4-C ,  5-C ) :   1.0728 B(  4-C ,  6-N ) :   0.9784
B(  4-C , 12-H ) :   0.9157 B(  5-C ,  6-N ) :   0.9992 B(  5-C , 13-H ) :   0.9393
B(  5-C , 14-H ) :   0.9363 B(  6-N , 15-H ) :   0.9522

FINAL SINGLE POINT ENERGY      -325.197234361218

DIPOLE MOMENT
-------------
                                X             Y             Z
Electronic contribution:     -0.95821      -0.56353      -0.73275
Nuclear contribution   :      0.65284       1.26512       0.99727
                        -----------------------------------------
Total Dipole Moment    :     -0.30536       0.70159       0.26452
                        -----------------------------------------
Magnitude (a.u.)       :      0.80959
Magnitude (Debye)      :      2.05783

                             ****ORCA TERMINATED NORMALLY****
TOTAL RUN TIME: 0 days 0 hours 0 minutes 6 seconds 980 msec
