                         Program Version 3.0.3 - RELEASE   -
|  1> ! RI PBE def2-SVP def2-SVP/J NBO PAL2
|  2> % maxcore 2000
|  3> % output
|  4>     # printlevel mini
|  5>     print[ P_Basis ] 0
|  6>     print[ P_SCFInfo ] 1
|  7>     print[ P_SCFIterInfo ] 1
|  8>     print[ P_OrbEn ] 0
|  9>     print[ P_Cartesian ] 0
| 10> end
| 11> *xyz 0 1
| 12>  C        1.2774390000     0.3024680000    -0.3885890000
| 13>  O        2.6517120000     0.0728160000    -0.5864310000
| 14>  C        3.2027160000     0.5470000000    -1.7247580000
| 15>  C        2.5488120000     1.1823820000    -2.6986110000
| 16>  C        4.6570310000     0.2612090000    -1.7215000000
| 17>  C        5.1724710000    -0.9244690000    -2.4443380000
| 18>  N        5.4771340000     0.4244650000    -2.9054000000
| 19>  H        1.0332940000    -0.1124970000     0.5878210000
| 20>  H        0.6773240000    -0.1969260000    -1.1567810000
| 21>  H        1.0517760000     1.3741260000    -0.3997250000
| 22>  H        1.4815060000     1.3477740000    -2.6788790000
| 23>  H        3.0885380000     1.5758130000    -3.5480630000
| 24>  H        5.1493460000     0.5414330000    -0.7941230000
| 25>  H        4.4500560000    -1.5110870000    -3.0025410000
| 26>  H        6.0118920000    -1.4779530000    -2.0381420000
| 27>  H        4.8983540000     0.6526580000    -3.7062290000
| 28> *
| 29>
| 30>                          ****END OF INPUT****
 Total Charge           Charge          ....    0
 Multiplicity           Mult            ....    1
 Number of Electrons    NEL             ....   54
 Basis Dimension        Dim             ....  143

MULLIKEN ATOMIC CHARGES
-----------------------
   0 C :    0.143249
   1 O :   -0.273160
   2 C :    0.119100
   3 C :   -0.137293
   4 C :   -0.052761
   5 C :    0.048131
   6 N :   -0.180357
   7 H :    0.035096
   8 H :    0.031115
   9 H :    0.026614
  10 H :    0.016482
  11 H :    0.009471
  12 H :    0.037363
  13 H :    0.034442
  14 H :    0.039730
  15 H :    0.102778
Sum of atomic charges:    0.0000000

LOEWDIN ATOMIC CHARGES
----------------------
   0 C :    0.063053
   1 O :   -0.065254
   2 C :    0.020116
   3 C :   -0.165384
   4 C :   -0.008486
   5 C :    0.015010
   6 N :   -0.088033
   7 H :    0.027108
   8 H :    0.016590
   9 H :    0.016664
  10 H :    0.023128
  11 H :    0.023766
  12 H :    0.031339
  13 H :    0.017814
  14 H :    0.022057
  15 H :    0.050512

  Mayer bond orders larger than 0.1
B(  0-C ,  1-O ) :   0.9824 B(  0-C ,  7-H ) :   0.9724 B(  0-C ,  8-H ) :   0.9606
B(  0-C ,  9-H ) :   0.9572 B(  1-O ,  2-C ) :   1.1364 B(  2-C ,  3-C ) :   1.8295
B(  2-C ,  4-C ) :   1.0072 B(  3-C , 10-H ) :   0.9363 B(  3-C , 11-H ) :   0.9174
B(  4-C ,  5-C ) :   1.0415 B(  4-C ,  6-N ) :   1.0273 B(  4-C , 12-H ) :   0.9152
B(  5-C ,  6-N ) :   1.0043 B(  5-C , 13-H ) :   0.9407 B(  5-C , 14-H ) :   0.9435
B(  6-N , 15-H ) :   0.9470

FINAL SINGLE POINT ENERGY      -325.199168413724

DIPOLE MOMENT
-------------
                                X             Y             Z
Electronic contribution:      2.81938      -0.07914       0.87503
Nuclear contribution   :     -3.66646      -0.13817      -0.80396
                        -----------------------------------------
Total Dipole Moment    :     -0.84708      -0.21731       0.07107
                        -----------------------------------------
Magnitude (a.u.)       :      0.87739
Magnitude (Debye)      :      2.23016

                             ****ORCA TERMINATED NORMALLY****
TOTAL RUN TIME: 0 days 0 hours 0 minutes 7 seconds 69 msec
