                         Program Version 3.0.3 - RELEASE   -
|  1> ! RI PBE def2-SVP def2-SVP/J NBO PAL2
|  2> % maxcore 2000
|  3> % output
|  4>     # printlevel mini
|  5>     print[ P_Basis ] 0
|  6>     print[ P_SCFInfo ] 1
|  7>     print[ P_SCFIterInfo ] 1
|  8>     print[ P_OrbEn ] 0
|  9>     print[ P_Cartesian ] 0
| 10> end
| 11> *xyz 0 1
| 12>  C        1.6362540000    -0.2438550000    -0.9150770000
| 13>  O        2.8472570000    -0.8492320000    -0.5523220000
| 14>  C        3.0014730000    -1.0648650000     0.8351900000
| 15>  C        2.1889870000    -2.2489650000     1.3303660000
| 16>  C        4.4720610000    -1.2602820000     1.1151060000
| 17>  C        5.3500690000    -1.9331900000     0.1425260000
| 18>  N        5.4704200000    -0.4942570000     0.3892200000
| 19>  H        1.6836370000    -0.0420580000    -1.9855340000
| 20>  H        1.4873480000     0.7048080000    -0.3813710000
| 21>  H        0.7723980000    -0.8912380000    -0.7219520000
| 22>  H        2.6742430000    -0.1550470000     1.3664530000
| 23>  H        2.4818510000    -3.1541060000     0.7941600000
| 24>  H        1.1175110000    -2.0913160000     1.1922180000
| 25>  H        2.3635600000    -2.4073870000     2.3972310000
| 26>  H        4.6891770000    -1.3788620000     2.1738860000
| 27>  H        4.9051860000    -2.2500820000    -0.7942420000
| 28>  H        6.1842690000    -2.5319540000     0.4915510000
| 29>  H        5.0004990000    -0.0058930000    -0.3683000000
| 30> *
| 31>
| 32>                          ****END OF INPUT****
 Total Charge           Charge          ....    0
 Multiplicity           Mult            ....    1
 Number of Electrons    NEL             ....   56
 Basis Dimension        Dim             ....  153

MULLIKEN ATOMIC CHARGES
-----------------------
   0 C :    0.156403
   1 O :   -0.355187
   2 C :    0.139193
   3 C :    0.017007
   4 C :   -0.115503
   5 C :    0.044884
   6 N :   -0.185687
   7 H :    0.034836
   8 H :    0.006416
   9 H :    0.008953
  10 H :   -0.004457
  11 H :    0.021256
  12 H :    0.022338
  13 H :    0.023356
  14 H :    0.020195
  15 H :    0.033136
  16 H :    0.031242
  17 H :    0.101620
Sum of atomic charges:    0.0000000

LOEWDIN ATOMIC CHARGES
----------------------
   0 C :    0.053509
   1 O :   -0.140249
   2 C :    0.041907
   3 C :   -0.071481
   4 C :   -0.022746
   5 C :    0.000089
   6 N :   -0.100924
   7 H :    0.025068
   8 H :    0.007743
   9 H :    0.005469
  10 H :    0.010378
  11 H :    0.030633
  12 H :    0.025056
  13 H :    0.033746
  14 H :    0.022795
  15 H :    0.015343
  16 H :    0.018217
  17 H :    0.045448

  Mayer bond orders larger than 0.1
B(  0-C ,  1-O ) :   1.0119 B(  0-C ,  7-H ) :   0.9750 B(  0-C ,  8-H ) :   0.9539
B(  0-C ,  9-H ) :   0.9574 B(  1-O ,  2-C ) :   0.9887 B(  2-C ,  3-C ) :   1.0868
B(  2-C ,  4-C ) :   0.9998 B(  2-C , 10-H ) :   0.9019 B(  3-C , 11-H ) :   0.9531
B(  3-C , 12-H ) :   0.9469 B(  3-C , 13-H ) :   0.9503 B(  4-C ,  5-C ) :   1.0560
B(  4-C ,  6-N ) :   1.0187 B(  4-C , 14-H ) :   0.9305 B(  5-C ,  6-N ) :   1.0040
B(  5-C , 15-H ) :   0.9365 B(  5-C , 16-H ) :   0.9440 B(  6-N , 17-H ) :   0.9405

FINAL SINGLE POINT ENERGY      -326.413635453357

DIPOLE MOMENT
-------------
                                X             Y             Z
Electronic contribution:      4.01073       1.36966      -0.77442
Nuclear contribution   :     -5.00041      -1.49061       0.73796
                        -----------------------------------------
Total Dipole Moment    :     -0.98968      -0.12096      -0.03646
                        -----------------------------------------
Magnitude (a.u.)       :      0.99771
Magnitude (Debye)      :      2.53598

                             ****ORCA TERMINATED NORMALLY****
TOTAL RUN TIME: 0 days 0 hours 0 minutes 7 seconds 914 msec
