                         Program Version 3.0.3 - RELEASE   -
|  1> ! RI PBE def2-SVP def2-SVP/J NBO PAL2
|  2> % maxcore 2000
|  3> % output
|  4>     # printlevel mini
|  5>     print[ P_Basis ] 0
|  6>     print[ P_SCFInfo ] 1
|  7>     print[ P_SCFIterInfo ] 1
|  8>     print[ P_OrbEn ] 0
|  9>     print[ P_Cartesian ] 0
| 10> end
| 11> *xyz 0 1
| 12>  C        1.9778840000     0.2530130000     0.2579690000
| 13>  O        2.5381960000    -0.9938860000    -0.0367820000
| 14>  C        3.9359920000    -0.9391420000    -0.1676350000
| 15>  C        4.4690830000    -2.3217980000    -0.4647750000
| 16>  C        4.2404050000    -3.3174830000     0.6604000000
| 17>  C        4.7854660000    -4.6968250000     0.3429920000
| 18>  N        4.5174220000    -5.6225810000     1.4328640000
| 19>  H        0.8987040000     0.1203400000     0.3407070000
| 20>  H        2.1856600000     0.9876360000    -0.5335260000
| 21>  H        2.3599490000     0.6544490000     1.2075940000
| 22>  H        4.3846330000    -0.5488330000     0.7613130000
| 23>  H        4.2088020000    -0.2433480000    -0.9769240000
| 24>  H        5.5410530000    -2.2318670000    -0.6755010000
| 25>  H        3.9978730000    -2.6850620000    -1.3849550000
| 26>  H        3.1726510000    -3.3974070000     0.8775300000
| 27>  H        4.7185590000    -2.9435390000     1.5759850000
| 28>  H        5.8557640000    -4.6102730000     0.0893920000
| 29>  H        4.2854100000    -5.0801030000    -0.5531440000
| 30>  H        4.9997570000    -5.3247590000     2.2726440000
| 31>  H        4.8606270000    -6.5484230000     1.2105330000
| 32> *
| 33>
| 34>                          ****END OF INPUT****
 Total Charge           Charge          ....    0
 Multiplicity           Mult            ....    1
 Number of Electrons    NEL             ....   58
 Basis Dimension        Dim             ....  163

MULLIKEN ATOMIC CHARGES
-----------------------
   0 C :    0.147886
   1 O :   -0.347381
   2 C :    0.174185
   3 C :   -0.007239
   4 C :   -0.044088
   5 C :    0.072963
   6 N :   -0.204036
   7 H :    0.034903
   8 H :    0.004486
   9 H :   -0.002300
  10 H :   -0.015703
  11 H :   -0.008126
  12 H :    0.005170
  13 H :    0.011722
  14 H :    0.028725
  15 H :   -0.007484
  16 H :   -0.017005
  17 H :    0.001949
  18 H :    0.084967
  19 H :    0.086405
Sum of atomic charges:    0.0000000

LOEWDIN ATOMIC CHARGES
----------------------
   0 C :    0.048250
   1 O :   -0.148164
   2 C :    0.060581
   3 C :   -0.051028
   4 C :   -0.048838
   5 C :    0.004012
   6 N :   -0.113280
   7 H :    0.023168
   8 H :    0.003971
   9 H :    0.003435
  10 H :    0.000674
  11 H :    0.002979
  12 H :    0.027044
  13 H :    0.027233
  14 H :    0.029061
  15 H :    0.017371
  16 H :   -0.005209
  17 H :    0.019131
  18 H :    0.048188
  19 H :    0.051421

  Mayer bond orders larger than 0.1
B(  0-C ,  1-O ) :   1.0253 B(  0-C ,  7-H ) :   0.9761 B(  0-C ,  8-H ) :   0.9553
B(  0-C ,  9-H ) :   0.9534 B(  1-O ,  2-C ) :   1.0237 B(  2-C ,  3-C ) :   1.0897
B(  2-C , 10-H ) :   0.9184 B(  2-C , 11-H ) :   0.9243 B(  3-C ,  4-C ) :   1.0882
B(  3-C , 12-H ) :   0.9179 B(  3-C , 13-H ) :   0.9257 B(  4-C ,  5-C ) :   1.0973
B(  4-C , 14-H ) :   0.9312 B(  4-C , 15-H ) :   0.9348 B(  5-C ,  6-N ) :   1.0973
B(  5-C , 16-H ) :   0.9250 B(  5-C , 17-H ) :   0.9294 B(  6-N , 18-H ) :   0.9702
B(  6-N , 19-H ) :   0.9630

FINAL SINGLE POINT ENERGY      -327.637994652992

DIPOLE MOMENT
-------------
                                X             Y             Z
Electronic contribution:     -1.65732      -0.48336      -0.21765
Nuclear contribution   :      2.29889       0.76041       0.25434
                        -----------------------------------------
Total Dipole Moment    :      0.64157       0.27705       0.03669
                        -----------------------------------------
Magnitude (a.u.)       :      0.69979
Magnitude (Debye)      :      1.77873

                             ****ORCA TERMINATED NORMALLY****
TOTAL RUN TIME: 0 days 0 hours 0 minutes 8 seconds 40 msec
