                         Program Version 3.0.3 - RELEASE   -
|  1> ! RI PBE def2-SVP def2-SVP/J NBO PAL2
|  2> % maxcore 2000
|  3> % output
|  4>     # printlevel mini
|  5>     print[ P_Basis ] 0
|  6>     print[ P_SCFInfo ] 1
|  7>     print[ P_SCFIterInfo ] 1
|  8>     print[ P_OrbEn ] 0
|  9>     print[ P_Cartesian ] 0
| 10> end
| 11> *xyz 0 1
| 12>  C        4.4521030000     0.7037130000     0.7913040000
| 13>  O        3.3389770000    -0.0891520000     0.4614800000
| 14>  C        3.4063250000    -0.7735490000    -0.6977880000
| 15>  C        4.4014560000    -0.8049080000    -1.5819670000
| 16>  C        4.3307680000    -1.6113190000    -2.8375150000
| 17>  C        4.3951020000    -0.7594270000    -4.0981460000
| 18>  N        4.3467460000    -1.6002720000    -5.2838420000
| 19>  H        4.2254700000     1.1776300000     1.7450270000
| 20>  H        4.6275360000     1.4746670000     0.0323500000
| 21>  H        5.3567250000     0.0932490000     0.8921560000
| 22>  H        2.4963530000    -1.3464710000    -0.8490680000
| 23>  H        5.3040490000    -0.2254450000    -1.4140810000
| 24>  H        3.4118180000    -2.2042550000    -2.8618390000
| 25>  H        5.1621880000    -2.3294860000    -2.8646480000
| 26>  H        5.2868780000    -0.1129550000    -4.0459360000
| 27>  H        3.5281390000    -0.0920360000    -4.1163280000
| 28>  H        5.1690910000    -2.1903480000    -5.3314810000
| 29>  H        4.3409550000    -1.0365560000    -6.1242970000
| 30> *
| 31>
| 32>                          ****END OF INPUT****
 Total Charge           Charge          ....    0
 Multiplicity           Mult            ....    1
 Number of Electrons    NEL             ....   56
 Basis Dimension        Dim             ....  153

MULLIKEN ATOMIC CHARGES
-----------------------
   0 C :    0.139735
   1 O :   -0.267826
   2 C :    0.130283
   3 C :   -0.148099
   4 C :    0.039095
   5 C :    0.054133
   6 N :   -0.206753
   7 H :    0.034822
   8 H :    0.024914
   9 H :    0.023603
  10 H :    0.004017
  11 H :   -0.009282
  12 H :    0.007235
  13 H :    0.009107
  14 H :   -0.013015
  15 H :    0.008297
  16 H :    0.084195
  17 H :    0.085540
Sum of atomic charges:   -0.0000000

LOEWDIN ATOMIC CHARGES
----------------------
   0 C :    0.060173
   1 O :   -0.070889
   2 C :    0.020791
   3 C :   -0.122555
   4 C :   -0.041824
   5 C :    0.005743
   6 N :   -0.113601
   7 H :    0.026007
   8 H :    0.014383
   9 H :    0.014261
  10 H :    0.021199
  11 H :    0.018574
  12 H :    0.028510
  13 H :    0.024758
  14 H :   -0.004905
  15 H :    0.019798
  16 H :    0.048051
  17 H :    0.051524

  Mayer bond orders larger than 0.1
B(  0-C ,  1-O ) :   0.9949 B(  0-C ,  7-H ) :   0.9723 B(  0-C ,  8-H ) :   0.9579
B(  0-C ,  9-H ) :   0.9575 B(  1-O ,  2-C ) :   1.1556 B(  2-C ,  3-C ) :   1.7733
B(  2-C , 10-H ) :   0.9676 B(  3-C ,  4-C ) :   1.0509 B(  3-C , 11-H ) :   0.9493
B(  4-C ,  5-C ) :   1.0710 B(  4-C , 12-H ) :   0.9289 B(  4-C , 13-H ) :   0.9183
B(  5-C ,  6-N ) :   1.0880 B(  5-C , 14-H ) :   0.9345 B(  5-C , 15-H ) :   0.9354
B(  6-N , 16-H ) :   0.9685 B(  6-N , 17-H ) :   0.9667

FINAL SINGLE POINT ENERGY      -326.426428955262

DIPOLE MOMENT
-------------
                                X             Y             Z
Electronic contribution:     -2.74891      -0.32208       3.59512
Nuclear contribution   :      3.46622       0.73990      -3.69409
                        -----------------------------------------
Total Dipole Moment    :      0.71731       0.41783      -0.09897
                        -----------------------------------------
Magnitude (a.u.)       :      0.83600
Magnitude (Debye)      :      2.12495

                             ****ORCA TERMINATED NORMALLY****
TOTAL RUN TIME: 0 days 0 hours 0 minutes 7 seconds 581 msec
