                         Program Version 3.0.3 - RELEASE   -
|  1> ! RI PBE def2-SVP def2-SVP/J NBO PAL2
|  2> % maxcore 2000
|  3> % output
|  4>     # printlevel mini
|  5>     print[ P_Basis ] 0
|  6>     print[ P_SCFInfo ] 1
|  7>     print[ P_SCFIterInfo ] 1
|  8>     print[ P_OrbEn ] 0
|  9>     print[ P_Cartesian ] 0
| 10> end
| 11> *xyz 0 1
| 12>  C        2.0701820000    -0.0479140000    -1.4832880000
| 13>  O        3.4125920000    -0.1034080000    -1.0652490000
| 14>  C        3.7318450000     0.7551750000    -0.0656910000
| 15>  C        4.8515090000     0.6562630000     0.6487070000
| 16>  C        5.8488600000    -0.4381650000     0.4566520000
| 17>  C        5.1431210000     1.6958120000     1.6875990000
| 18>  N        5.2265820000     1.0990270000     3.0166490000
| 19>  H        1.3893630000    -0.3724350000    -0.6878540000
| 20>  H        1.9716710000    -0.7221590000    -2.3331300000
| 21>  H        1.7925820000     0.9651710000    -1.7985900000
| 22>  H        3.0221790000     1.5650240000     0.1010110000
| 23>  H        6.7645810000    -0.0506820000    -0.0050420000
| 24>  H        5.4580510000    -1.2291320000    -0.1827150000
| 25>  H        6.1325880000    -0.8600560000     1.4234890000
| 26>  H        4.3984750000     2.5028790000     1.6078650000
| 27>  H        6.1199020000     2.1496910000     1.4777850000
| 28>  H        4.3156920000     0.7612020000     3.3029270000
| 29>  H        5.5264170000     1.7830090000     3.6996970000
| 30> *
| 31>
| 32>                          ****END OF INPUT****
 Total Charge           Charge          ....    0
 Multiplicity           Mult            ....    1
 Number of Electrons    NEL             ....   56
 Basis Dimension        Dim             ....  153

MULLIKEN ATOMIC CHARGES
-----------------------
   0 C :    0.144879
   1 O :   -0.271365
   2 C :    0.075054
   3 C :   -0.219274
   4 C :    0.100175
   5 C :    0.130445
   6 N :   -0.210742
   7 H :    0.020806
   8 H :    0.037284
   9 H :    0.018626
  10 H :   -0.030734
  11 H :    0.014314
  12 H :    0.016665
  13 H :    0.020130
  14 H :   -0.016144
  15 H :    0.000977
  16 H :    0.082317
  17 H :    0.086587
Sum of atomic charges:    0.0000000

LOEWDIN ATOMIC CHARGES
----------------------
   0 C :    0.058058
   1 O :   -0.084944
   2 C :    0.002795
   3 C :   -0.095282
   4 C :   -0.055490
   5 C :    0.015022
   6 N :   -0.109693
   7 H :    0.011971
   8 H :    0.026548
   9 H :    0.011857
  10 H :    0.004323
  11 H :    0.033123
  12 H :    0.028385
  13 H :    0.031994
  14 H :    0.000137
  15 H :    0.022531
  16 H :    0.048311
  17 H :    0.050354

  Mayer bond orders larger than 0.1
B(  0-C ,  1-O ) :   0.9880 B(  0-C ,  7-H ) :   0.9624 B(  0-C ,  8-H ) :   0.9769
B(  0-C ,  9-H ) :   0.9579 B(  1-O ,  2-C ) :   1.1249 B(  2-C ,  3-C ) :   1.7848
B(  2-C , 10-H ) :   0.9291 B(  3-C ,  4-C ) :   1.1055 B(  3-C ,  5-C ) :   1.0807
B(  4-C , 11-H ) :   0.9388 B(  4-C , 12-H ) :   0.9464 B(  4-C , 13-H ) :   0.9329
B(  5-C ,  6-N ) :   1.0714 B(  5-C , 14-H ) :   0.9168 B(  5-C , 15-H ) :   0.9108
B(  6-N , 16-H ) :   0.9672 B(  6-N , 17-H ) :   0.9657

FINAL SINGLE POINT ENERGY      -326.429294837751

DIPOLE MOMENT
-------------
                                X             Y             Z
Electronic contribution:     -0.36913      -0.33315      -1.32625
Nuclear contribution   :     -0.40323       0.80362       1.41254
                        -----------------------------------------
Total Dipole Moment    :     -0.77236       0.47047       0.08630
                        -----------------------------------------
Magnitude (a.u.)       :      0.90847
Magnitude (Debye)      :      2.30915

                             ****ORCA TERMINATED NORMALLY****
TOTAL RUN TIME: 0 days 0 hours 0 minutes 8 seconds 65 msec
