                         Program Version 3.0.3 - RELEASE   -
|  1> ! RI PBE def2-SVP def2-SVP/J NBO PAL2
|  2> % maxcore 2000
|  3> % output
|  4>     # printlevel mini
|  5>     print[ P_Basis ] 0
|  6>     print[ P_SCFInfo ] 1
|  7>     print[ P_SCFIterInfo ] 1
|  8>     print[ P_OrbEn ] 0
|  9>     print[ P_Cartesian ] 0
| 10> end
| 11> *xyz 0 1
| 12>  C        0.9936450000    -0.3618550000    -0.5606760000
| 13>  O        2.3751250000    -0.2322270000    -0.2750960000
| 14>  C        3.1209910000     0.2764760000    -1.2588140000
| 15>  C        4.4444780000     0.4565170000    -1.1310250000
| 16>  C        5.2306020000     0.1185220000     0.0983660000
| 17>  C        5.1342410000     1.0058860000    -2.2451190000
| 18>  N        5.7259820000     1.4500990000    -3.1307120000
| 19>  H        0.5305100000    -0.7855110000     0.3280210000
| 20>  H        0.8314360000    -1.0335780000    -1.4087580000
| 21>  H        0.5454380000     0.6133020000    -0.7726990000
| 22>  H        2.6052900000     0.5419150000    -2.1786980000
| 23>  H        4.5759550000    -0.2925170000     0.8651420000
| 24>  H        5.7253520000     1.0067200000     0.4989490000
| 25>  H        6.0088740000    -0.6143600000    -0.1280930000
| 26> *
| 27>
| 28>                          ****END OF INPUT****
 Total Charge           Charge          ....    0
 Multiplicity           Mult            ....    1
 Number of Electrons    NEL             ....   52
 Basis Dimension        Dim             ....  133

MULLIKEN ATOMIC CHARGES
-----------------------
   0 C :    0.133059
   1 O :   -0.250842
   2 C :    0.133637
   3 C :   -0.255733
   4 C :    0.100216
   5 C :   -0.147112
   6 N :    0.033125
   7 H :    0.051999
   8 H :    0.039336
   9 H :    0.038153
  10 H :    0.007121
  11 H :    0.026385
  12 H :    0.043697
  13 H :    0.046959
Sum of atomic charges:   -0.0000000

LOEWDIN ATOMIC CHARGES
----------------------
   0 C :    0.066654
   1 O :   -0.053766
   2 C :    0.057838
   3 C :   -0.128938
   4 C :   -0.041430
   5 C :   -0.044960
   6 N :   -0.079904
   7 H :    0.033426
   8 H :    0.021917
   9 H :    0.021827
  10 H :    0.024063
  11 H :    0.035758
  12 H :    0.043653
  13 H :    0.043861

  Mayer bond orders larger than 0.1
B(  0-C ,  1-O ) :   0.9561 B(  0-C ,  7-H ) :   0.9769 B(  0-C ,  8-H ) :   0.9652
B(  0-C ,  9-H ) :   0.9646 B(  1-O ,  2-C ) :   1.1881 B(  2-C ,  3-C ) :   1.7044
B(  2-C , 10-H ) :   0.9380 B(  3-C ,  4-C ) :   1.0864 B(  3-C ,  5-C ) :   1.1411
B(  4-C , 11-H ) :   0.9382 B(  4-C , 12-H ) :   0.9457 B(  4-C , 13-H ) :   0.9475
B(  5-C ,  6-N ) :   2.9672

FINAL SINGLE POINT ENERGY      -324.034709870080

DIPOLE MOMENT
-------------
                                X             Y             Z
Electronic contribution:      3.63294       2.15595      -3.95143
Nuclear contribution   :     -5.25707      -2.83022       4.97249
                        -----------------------------------------
Total Dipole Moment    :     -1.62413      -0.67427       1.02106
                        -----------------------------------------
Magnitude (a.u.)       :      2.03347
Magnitude (Debye)      :      5.16867

                             ****ORCA TERMINATED NORMALLY****
TOTAL RUN TIME: 0 days 0 hours 0 minutes 6 seconds 236 msec
