                         Program Version 3.0.3 - RELEASE   -
|  1> ! RI PBE def2-SVP def2-SVP/J NBO PAL2
|  2> % maxcore 2000
|  3> % output
|  4>     # printlevel mini
|  5>     print[ P_Basis ] 0
|  6>     print[ P_SCFInfo ] 1
|  7>     print[ P_SCFIterInfo ] 1
|  8>     print[ P_OrbEn ] 0
|  9>     print[ P_Cartesian ] 0
| 10> end
| 11> *xyz 0 1
| 12>  C        4.1029210000    -0.7562340000    -0.8649710000
| 13>  O        3.0141390000    -0.2264920000    -0.1485620000
| 14>  C        3.2774140000     0.7985180000     0.6870750000
| 15>  C        4.4510800000     1.3851180000     0.9124570000
| 16>  C        4.6725940000     2.5221570000     1.8654790000
| 17>  C        3.4249300000     2.9677700000     2.6175790000
| 18>  N        5.7921100000     2.1621280000     2.7359740000
| 19>  H        3.7071710000    -1.5657800000    -1.4761420000
| 20>  H        4.8688430000    -1.1491190000    -0.1871750000
| 21>  H        4.5576490000     0.0024260000    -1.5116090000
| 22>  H        2.3657160000     1.1135000000     1.1816650000
| 23>  H        5.3481600000     1.0427580000     0.4086410000
| 24>  H        5.0238390000     3.3791030000     1.2730580000
| 25>  H        3.0249760000     2.1545210000     3.2306510000
| 26>  H        2.6365070000     3.3087780000     1.9409250000
| 27>  H        3.6706180000     3.7981370000     3.2840460000
| 28>  H        5.5354330000     1.3622220000     3.3046870000
| 29>  H        6.0026880000     2.9241880000     3.3705320000
| 30> *
| 31>
| 32>                          ****END OF INPUT****
 Total Charge           Charge          ....    0
 Multiplicity           Mult            ....    1
 Number of Electrons    NEL             ....   56
 Basis Dimension        Dim             ....  153

MULLIKEN ATOMIC CHARGES
-----------------------
   0 C :    0.130078
   1 O :   -0.266336
   2 C :    0.137463
   3 C :   -0.141504
   4 C :    0.014269
   5 C :    0.013933
   6 N :   -0.194285
   7 H :    0.036488
   8 H :    0.030842
   9 H :    0.028453
  10 H :   -0.000964
  11 H :   -0.003851
  12 H :    0.007806
  13 H :    0.014204
  14 H :    0.023004
  15 H :    0.009637
  16 H :    0.080691
  17 H :    0.080071
Sum of atomic charges:    0.0000000

LOEWDIN ATOMIC CHARGES
----------------------
   0 C :    0.059357
   1 O :   -0.071235
   2 C :    0.020179
   3 C :   -0.124212
   4 C :    0.001024
   5 C :   -0.080974
   6 N :   -0.098069
   7 H :    0.026060
   8 H :    0.016478
   9 H :    0.015812
  10 H :    0.018870
  11 H :    0.024657
  12 H :    0.028226
  13 H :    0.020918
  14 H :    0.026709
  15 H :    0.022797
  16 H :    0.046661
  17 H :    0.046742

  Mayer bond orders larger than 0.1
B(  0-C ,  1-O ) :   0.9891 B(  0-C ,  7-H ) :   0.9724 B(  0-C ,  8-H ) :   0.9593
B(  0-C ,  9-H ) :   0.9591 B(  1-O ,  2-C ) :   1.1580 B(  1-O ,  3-C ) :   0.1001
B(  2-C ,  3-C ) :   1.7510 B(  2-C , 10-H ) :   0.9512 B(  3-C ,  4-C ) :   1.0278
B(  3-C , 11-H ) :   0.9606 B(  4-C ,  5-C ) :   1.1067 B(  4-C ,  6-N ) :   1.0630
B(  4-C , 12-H ) :   0.8855 B(  5-C , 13-H ) :   0.9426 B(  5-C , 14-H ) :   0.9347
B(  5-C , 15-H ) :   0.9526 B(  6-N , 16-H ) :   0.9698 B(  6-N , 17-H ) :   0.9669

FINAL SINGLE POINT ENERGY      -326.429019591239

DIPOLE MOMENT
-------------
                                X             Y             Z
Electronic contribution:     -1.39973      -2.44799      -2.17233
Nuclear contribution   :      1.41842       2.46124       2.30774
                        -----------------------------------------
Total Dipole Moment    :      0.01869       0.01325       0.13541
                        -----------------------------------------
Magnitude (a.u.)       :      0.13734
Magnitude (Debye)      :      0.34908

                             ****ORCA TERMINATED NORMALLY****
TOTAL RUN TIME: 0 days 0 hours 0 minutes 7 seconds 789 msec
