                         Program Version 3.0.3 - RELEASE   -
|  1> ! RI PBE def2-SVP def2-SVP/J NBO PAL2
|  2> % maxcore 2000
|  3> % output
|  4>     # printlevel mini
|  5>     print[ P_Basis ] 0
|  6>     print[ P_SCFInfo ] 1
|  7>     print[ P_SCFIterInfo ] 1
|  8>     print[ P_OrbEn ] 0
|  9>     print[ P_Cartesian ] 0
| 10> end
| 11> *xyz 0 1
| 12>  C        3.6179890000    -1.0898570000    -0.2812400000
| 13>  O        2.7733800000    -0.0225520000     0.0887070000
| 14>  C        3.2987950000     0.9174300000     0.8846170000
| 15>  C        4.5288600000     0.9703590000     1.3923760000
| 16>  C        4.9533430000     2.0994490000     2.2843320000
| 17>  C        6.0855050000     2.8466490000     1.7445350000
| 18>  N        6.9845680000     3.4205440000     1.3156350000
| 19>  H        3.0279880000    -1.7415260000    -0.9225240000
| 20>  H        3.9534510000    -1.6476140000     0.5996340000
| 21>  H        4.4916540000    -0.7254640000    -0.8315980000
| 22>  H        2.5661380000     1.6915370000     1.0936710000
| 23>  H        5.2674400000     0.2078430000     1.1792070000
| 24>  H        5.2470650000     1.7338780000     3.2751110000
| 25>  H        4.1267250000     2.7986140000     2.4404580000
| 26> *
| 27>
| 28>                          ****END OF INPUT****
 Total Charge           Charge          ....    0
 Multiplicity           Mult            ....    1
 Number of Electrons    NEL             ....   52
 Basis Dimension        Dim             ....  133

MULLIKEN ATOMIC CHARGES
-----------------------
   0 C :    0.118384
   1 O :   -0.254575
   2 C :    0.137066
   3 C :   -0.150783
   4 C :    0.115381
   5 C :   -0.267374
   6 N :    0.036183
   7 H :    0.048308
   8 H :    0.033898
   9 H :    0.040785
  10 H :    0.014133
  11 H :    0.018011
  12 H :    0.059464
  13 H :    0.051120
Sum of atomic charges:   -0.0000000

LOEWDIN ATOMIC CHARGES
----------------------
   0 C :    0.062596
   1 O :   -0.057569
   2 C :    0.031529
   3 C :   -0.119745
   4 C :   -0.048928
   5 C :   -0.044558
   6 N :   -0.070455
   7 H :    0.030890
   8 H :    0.018662
   9 H :    0.020989
  10 H :    0.025131
  11 H :    0.029320
  12 H :    0.061623
  13 H :    0.060514

  Mayer bond orders larger than 0.1
B(  0-C ,  1-O ) :   0.9789 B(  0-C ,  7-H ) :   0.9730 B(  0-C ,  8-H ) :   0.9588
B(  0-C ,  9-H ) :   0.9600 B(  1-O ,  2-C ) :   1.1889 B(  1-O ,  3-C ) :   0.1042
B(  2-C ,  3-C ) :   1.7560 B(  2-C , 10-H ) :   0.9679 B(  3-C ,  4-C ) :   1.0664
B(  3-C , 11-H ) :   0.9558 B(  4-C ,  5-C ) :   1.0791 B(  4-C , 12-H ) :   0.8889
B(  4-C , 13-H ) :   0.8946 B(  5-C ,  6-N ) :   3.0633

FINAL SINGLE POINT ENERGY      -324.025071780150

DIPOLE MOMENT
-------------
                                X             Y             Z
Electronic contribution:      1.97772       4.71410       0.60692
Nuclear contribution   :     -2.93849      -5.87110      -0.30187
                        -----------------------------------------
Total Dipole Moment    :     -0.96078      -1.15699       0.30505
                        -----------------------------------------
Magnitude (a.u.)       :      1.53453
Magnitude (Debye)      :      3.90047

                             ****ORCA TERMINATED NORMALLY****
TOTAL RUN TIME: 0 days 0 hours 0 minutes 6 seconds 603 msec
