                         Program Version 3.0.3 - RELEASE   -
|  1> ! RI PBE def2-SVP def2-SVP/J NBO PAL2
|  2> % maxcore 2000
|  3> % output
|  4>     # printlevel mini
|  5>     print[ P_Basis ] 0
|  6>     print[ P_SCFInfo ] 1
|  7>     print[ P_SCFIterInfo ] 1
|  8>     print[ P_OrbEn ] 0
|  9>     print[ P_Cartesian ] 0
| 10> end
| 11> *xyz 0 1
| 12>  C        1.4341700000     0.9351460000    -0.1781190000
| 13>  O        2.7526340000     0.7113770000     0.2560100000
| 14>  C        2.9200340000     0.2109220000     1.5031320000
| 15>  C        1.9340560000    -0.0825630000     2.3527580000
| 16>  C        4.3704650000     0.0167990000     1.8038480000
| 17>  C        5.0124010000    -1.0908800000     0.9769630000
| 18>  N        6.4211390000    -1.2127810000     1.3227950000
| 19>  H        1.5039090000     1.3339100000    -1.1890460000
| 20>  H        0.9239240000     1.6595540000     0.4660140000
| 21>  H        0.8578910000     0.0036560000    -0.1911050000
| 22>  H        0.8875130000     0.0527350000     2.1194490000
| 23>  H        2.1818350000    -0.4753420000     3.3286210000
| 24>  H        4.4989200000    -0.2092250000     2.8632410000
| 25>  H        4.8948730000     0.9591380000     1.6030680000
| 26>  H        4.8284510000    -0.8949450000    -0.0886090000
| 27>  H        4.5207390000    -2.0381900000     1.2180570000
| 28>  H        6.9254250000    -0.3823010000     1.0345760000
| 29>  H        6.8407180000    -1.9925990000     0.8325360000
| 30> *
| 31>
| 32>                          ****END OF INPUT****
 Total Charge           Charge          ....    0
 Multiplicity           Mult            ....    1
 Number of Electrons    NEL             ....   56
 Basis Dimension        Dim             ....  153

MULLIKEN ATOMIC CHARGES
-----------------------
   0 C :    0.137526
   1 O :   -0.275389
   2 C :    0.012863
   3 C :   -0.109462
   4 C :    0.075155
   5 C :    0.051219
   6 N :   -0.208366
   7 H :    0.033701
   8 H :    0.028837
   9 H :    0.028240
  10 H :    0.010275
  11 H :    0.009956
  12 H :    0.010284
  13 H :    0.012020
  14 H :    0.004821
  15 H :    0.003831
  16 H :    0.086741
  17 H :    0.087749
Sum of atomic charges:   -0.0000000

LOEWDIN ATOMIC CHARGES
----------------------
   0 C :    0.060340
   1 O :   -0.070692
   2 C :    0.028211
   3 C :   -0.160662
   4 C :   -0.045363
   5 C :    0.010240
   6 N :   -0.113895
   7 H :    0.025562
   8 H :    0.015854
   9 H :    0.015780
  10 H :    0.018816
  11 H :    0.027688
  12 H :    0.035115
  13 H :    0.030563
  14 H :    0.000137
  15 H :    0.020438
  16 H :    0.049222
  17 H :    0.052645

  Mayer bond orders larger than 0.1
B(  0-C ,  1-O ) :   0.9886 B(  0-C ,  7-H ) :   0.9718 B(  0-C ,  8-H ) :   0.9589
B(  0-C ,  9-H ) :   0.9585 B(  1-O ,  2-C ) :   1.1369 B(  2-C ,  3-C ) :   1.8471
B(  2-C ,  4-C ) :   1.0361 B(  3-C , 10-H ) :   0.9414 B(  3-C , 11-H ) :   0.9191
B(  4-C ,  5-C ) :   1.0820 B(  4-C , 12-H ) :   0.9176 B(  4-C , 13-H ) :   0.9080
B(  5-C ,  6-N ) :   1.0934 B(  5-C , 14-H ) :   0.9328 B(  5-C , 15-H ) :   0.9357
B(  6-N , 16-H ) :   0.9687 B(  6-N , 17-H ) :   0.9654

FINAL SINGLE POINT ENERGY      -326.430570060945

DIPOLE MOMENT
-------------
                                X             Y             Z
Electronic contribution:      0.27658       1.14728      -0.42183
Nuclear contribution   :     -0.40566      -1.06665      -0.21308
                        -----------------------------------------
Total Dipole Moment    :     -0.12908       0.08064      -0.63491
                        -----------------------------------------
Magnitude (a.u.)       :      0.65290
Magnitude (Debye)      :      1.65954

                             ****ORCA TERMINATED NORMALLY****
TOTAL RUN TIME: 0 days 0 hours 0 minutes 7 seconds 729 msec
