                         Program Version 3.0.3 - RELEASE   -
|  1> ! RI PBE def2-SVP def2-SVP/J NBO PAL2
|  2> % maxcore 2000
|  3> % output
|  4>     # printlevel mini
|  5>     print[ P_Basis ] 0
|  6>     print[ P_SCFInfo ] 1
|  7>     print[ P_SCFIterInfo ] 1
|  8>     print[ P_OrbEn ] 0
|  9>     print[ P_Cartesian ] 0
| 10> end
| 11> *xyz 0 1
| 12>  C        0.9788970000     1.0682670000     0.3067110000
| 13>  O        2.2649310000     0.7332590000    -0.1485530000
| 14>  C        2.9744960000    -0.1481900000     0.5846880000
| 15>  C        2.5319840000    -0.7712090000     1.6782670000
| 16>  C        4.3576170000    -0.3065660000     0.0009000000
| 17>  C        5.0481660000    -1.6026810000     0.4012250000
| 18>  N        5.1231240000     0.8980790000     0.3122200000
| 19>  H        0.5829990000     1.7986990000    -0.3970840000
| 20>  H        1.0171820000     1.5092640000     1.3088080000
| 21>  H        0.3226950000     0.1907130000     0.3290120000
| 22>  H        1.5438410000    -0.6127650000     2.0858770000
| 23>  H        3.1709090000    -1.4734950000     2.1922320000
| 24>  H        4.2170800000    -0.3103240000    -1.0863400000
| 25>  H        5.2499380000    -1.6282240000     1.4754980000
| 26>  H        4.4522570000    -2.4811250000     0.1424650000
| 27>  H        6.0086640000    -1.6780700000    -0.1145220000
| 28>  H        6.0184660000     0.8737720000    -0.1610150000
| 29>  H        5.3109650000     0.9336970000     1.3081210000
| 30> *
| 31>
| 32>                          ****END OF INPUT****
 Total Charge           Charge          ....    0
 Multiplicity           Mult            ....    1
 Number of Electrons    NEL             ....   56
 Basis Dimension        Dim             ....  153

MULLIKEN ATOMIC CHARGES
-----------------------
   0 C :    0.128717
   1 O :   -0.257466
   2 C :    0.070111
   3 C :   -0.128638
   4 C :    0.003160
   5 C :    0.028683
   6 N :   -0.174978
   7 H :    0.038496
   8 H :    0.030127
   9 H :    0.029919
  10 H :    0.004271
  11 H :    0.012279
  12 H :    0.011473
  13 H :    0.017344
  14 H :    0.018408
  15 H :    0.003722
  16 H :    0.083923
  17 H :    0.080448
Sum of atomic charges:    0.0000000

LOEWDIN ATOMIC CHARGES
----------------------
   0 C :    0.059113
   1 O :   -0.056247
   2 C :    0.027685
   3 C :   -0.163747
   4 C :   -0.008819
   5 C :   -0.074780
   6 N :   -0.087484
   7 H :    0.026938
   8 H :    0.016773
   9 H :    0.015089
  10 H :    0.020022
  11 H :    0.025245
  12 H :    0.031423
  13 H :    0.021352
  14 H :    0.027866
  15 H :    0.022658
  16 H :    0.049101
  17 H :    0.047812

  Mayer bond orders larger than 0.1
B(  0-C ,  1-O ) :   0.9876 B(  0-C ,  7-H ) :   0.9724 B(  0-C ,  8-H ) :   0.9580
B(  0-C ,  9-H ) :   0.9577 B(  1-O ,  2-C ) :   1.1824 B(  2-C ,  3-C ) :   1.8382
B(  2-C ,  4-C ) :   0.9783 B(  3-C , 10-H ) :   0.9322 B(  3-C , 11-H ) :   0.9218
B(  4-C ,  5-C ) :   1.0849 B(  4-C ,  6-N ) :   1.0963 B(  4-C , 12-H ) :   0.8863
B(  5-C , 13-H ) :   0.9453 B(  5-C , 14-H ) :   0.9451 B(  5-C , 15-H ) :   0.9495
B(  6-N , 16-H ) :   0.9682 B(  6-N , 17-H ) :   0.9677

FINAL SINGLE POINT ENERGY      -326.429657235221

DIPOLE MOMENT
-------------
                                X             Y             Z
Electronic contribution:     -1.09787       2.54659      -1.90217
Nuclear contribution   :      1.15669      -2.71134       2.06176
                        -----------------------------------------
Total Dipole Moment    :      0.05882      -0.16475       0.15958
                        -----------------------------------------
Magnitude (a.u.)       :      0.23679
Magnitude (Debye)      :      0.60187

                             ****ORCA TERMINATED NORMALLY****
TOTAL RUN TIME: 0 days 0 hours 0 minutes 7 seconds 842 msec
