                         Program Version 3.0.3 - RELEASE   -
|  1> ! RI PBE def2-SVP def2-SVP/J NBO PAL2
|  2> % maxcore 2000
|  3> % output
|  4>     # printlevel mini
|  5>     print[ P_Basis ] 0
|  6>     print[ P_SCFInfo ] 1
|  7>     print[ P_SCFIterInfo ] 1
|  8>     print[ P_OrbEn ] 0
|  9>     print[ P_Cartesian ] 0
| 10> end
| 11> *xyz 0 1
| 12>  C        1.3378150000    -0.0915610000    -0.4242430000
| 13>  O        2.6965180000     0.1523270000    -0.1368530000
| 14>  C        2.9978580000     1.3117320000     0.4725930000
| 15>  C        2.1526120000     2.2887210000     0.7935230000
| 16>  C        4.4751630000     1.3830720000     0.7461390000
| 17>  C        4.9232840000     0.3636710000     1.6866030000
| 18>  N        5.2846760000    -0.4290530000     2.4356930000
| 19>  H        1.2943740000    -1.0779650000    -0.8813170000
| 20>  H        0.9443860000     0.6548520000    -1.1220290000
| 21>  H        0.7383180000    -0.0828090000     0.4914100000
| 22>  H        1.0942970000     2.2401570000     0.5816300000
| 23>  H        2.5230800000     3.1723120000     1.2928430000
| 24>  H        4.7317190000     2.3655160000     1.1445540000
| 25>  H        5.0254890000     1.2460270000    -0.1905340000
| 26> *
| 27>
| 28>                          ****END OF INPUT****
 Total Charge           Charge          ....    0
 Multiplicity           Mult            ....    1
 Number of Electrons    NEL             ....   52
 Basis Dimension        Dim             ....  133

MULLIKEN ATOMIC CHARGES
-----------------------
   0 C :    0.133751
   1 O :   -0.262890
   2 C :    0.015735
   3 C :   -0.100371
   4 C :    0.160177
   5 C :   -0.268669
   6 N :    0.043161
   7 H :    0.044932
   8 H :    0.034265
   9 H :    0.039016
  10 H :    0.024765
  11 H :    0.019896
  12 H :    0.050709
  13 H :    0.065524
Sum of atomic charges:   -0.0000000

LOEWDIN ATOMIC CHARGES
----------------------
   0 C :    0.067044
   1 O :   -0.059693
   2 C :    0.027516
   3 C :   -0.143142
   4 C :   -0.050832
   5 C :   -0.040868
   6 N :   -0.062432
   7 H :    0.031151
   8 H :    0.018270
   9 H :    0.021726
  10 H :    0.026480
  11 H :    0.031690
  12 H :    0.065035
  13 H :    0.068054

  Mayer bond orders larger than 0.1
B(  0-C ,  1-O ) :   0.9732 B(  0-C ,  7-H ) :   0.9725 B(  0-C ,  8-H ) :   0.9610
B(  0-C ,  9-H ) :   0.9598 B(  1-O ,  2-C ) :   1.1708 B(  2-C ,  3-C ) :   1.8502
B(  2-C ,  4-C ) :   1.0289 B(  3-C , 10-H ) :   0.9434 B(  3-C , 11-H ) :   0.9188
B(  4-C ,  5-C ) :   1.0863 B(  4-C , 12-H ) :   0.8969 B(  4-C , 13-H ) :   0.8785
B(  5-C ,  6-N ) :   3.0630

FINAL SINGLE POINT ENERGY      -324.027013755525

DIPOLE MOMENT
-------------
                                X             Y             Z
Electronic contribution:      5.69011      -2.52388       2.65164
Nuclear contribution   :     -6.59882       3.36943      -3.67700
                        -----------------------------------------
Total Dipole Moment    :     -0.90871       0.84556      -1.02536
                        -----------------------------------------
Magnitude (a.u.)       :      1.60999
Magnitude (Debye)      :      4.09227

                             ****ORCA TERMINATED NORMALLY****
TOTAL RUN TIME: 0 days 0 hours 0 minutes 6 seconds 94 msec
