                         Program Version 3.0.3 - RELEASE   -
|  1> ! RI PBE def2-SVP def2-SVP/J NBO PAL2
|  2> % maxcore 2000
|  3> % output
|  4>     # printlevel mini
|  5>     print[ P_Basis ] 0
|  6>     print[ P_SCFInfo ] 1
|  7>     print[ P_SCFIterInfo ] 1
|  8>     print[ P_OrbEn ] 0
|  9>     print[ P_Cartesian ] 0
| 10> end
| 11> *xyz 0 1
| 12>  C        1.7093090000    -0.8994400000    -1.4314720000
| 13>  O        1.6161140000    -0.7311460000    -0.0264520000
| 14>  C        2.5892490000    -1.2970160000     0.7284840000
| 15>  C        2.3631540000    -1.7247150000     1.9746010000
| 16>  C        1.0425540000    -1.6972620000     2.6513170000
| 17>  C        3.9096840000    -1.3616690000     0.1722650000
| 18>  N        4.9626150000    -1.4158490000    -0.2928850000
| 19>  H        0.8636800000    -0.3610570000    -1.8548740000
| 20>  H        1.6438760000    -1.9568630000    -1.7051560000
| 21>  H        2.6405950000    -0.4810160000    -1.8231910000
| 22>  H        3.2224120000    -2.0940030000     2.5227030000
| 23>  H        0.8003810000    -2.6821000000     3.0611990000
| 24>  H        0.2496780000    -1.3920680000     1.9700560000
| 25>  H        1.0565100000    -1.0006060000     3.4960030000
| 26> *
| 27>
| 28>                          ****END OF INPUT****
 Total Charge           Charge          ....    0
 Multiplicity           Mult            ....    1
 Number of Electrons    NEL             ....   52
 Basis Dimension        Dim             ....  133

MULLIKEN ATOMIC CHARGES
-----------------------
   0 C :    0.136612
   1 O :   -0.277767
   2 C :    0.042393
   3 C :   -0.110828
   4 C :    0.048114
   5 C :   -0.150779
   6 N :    0.045525
   7 H :    0.045331
   8 H :    0.032998
   9 H :    0.047516
  10 H :    0.016837
  11 H :    0.038270
  12 H :    0.035870
  13 H :    0.049907
Sum of atomic charges:   -0.0000000

LOEWDIN ATOMIC CHARGES
----------------------
   0 C :    0.067330
   1 O :   -0.075580
   2 C :   -0.027862
   3 C :   -0.036539
   4 C :   -0.060611
   5 C :   -0.054014
   6 N :   -0.052577
   7 H :    0.030800
   8 H :    0.019372
   9 H :    0.023022
  10 H :    0.041455
  11 H :    0.042617
  12 H :    0.036065
  13 H :    0.046522

  Mayer bond orders larger than 0.1
B(  0-C ,  1-O ) :   0.9596 B(  0-C ,  7-H ) :   0.9760 B(  0-C ,  8-H ) :   0.9637
B(  0-C ,  9-H ) :   0.9557 B(  1-O ,  2-C ) :   1.1583 B(  2-C ,  3-C ) :   1.7917
B(  2-C ,  5-C ) :   1.0194 B(  3-C ,  4-C ) :   1.0936 B(  3-C ,  6-N ) :   0.1027
B(  3-C , 10-H ) :   0.9357 B(  4-C , 11-H ) :   0.9422 B(  4-C , 12-H ) :   0.9537
B(  4-C , 13-H ) :   0.9418 B(  5-C ,  6-N ) :   2.9707

FINAL SINGLE POINT ENERGY      -324.027418027672

DIPOLE MOMENT
-------------
                                X             Y             Z
Electronic contribution:      5.59228       0.75455      -1.68711
Nuclear contribution   :     -6.76667      -0.86308       1.89750
                        -----------------------------------------
Total Dipole Moment    :     -1.17439      -0.10853       0.21038
                        -----------------------------------------
Magnitude (a.u.)       :      1.19801
Magnitude (Debye)      :      3.04511

                             ****ORCA TERMINATED NORMALLY****
TOTAL RUN TIME: 0 days 0 hours 0 minutes 6 seconds 663 msec
