                         Program Version 3.0.3 - RELEASE   -
|  1> ! RI PBE def2-SVP def2-SVP/J NBO PAL2
|  2> % maxcore 2000
|  3> % output
|  4>     # printlevel mini
|  5>     print[ P_Basis ] 0
|  6>     print[ P_SCFInfo ] 1
|  7>     print[ P_SCFIterInfo ] 1
|  8>     print[ P_OrbEn ] 0
|  9>     print[ P_Cartesian ] 0
| 10> end
| 11> *xyz 0 1
| 12>  C        2.3172410000    -0.9975840000     0.0406980000
| 13>  O        2.1240520000     0.3912940000     0.1941840000
| 14>  C        2.6542330000     1.1536570000    -0.8541390000
| 15>  C        2.2667010000     2.5872820000    -0.6492240000
| 16>  C        1.6275450000     3.3013050000    -1.5601820000
| 17>  C        4.1277170000     1.0296130000    -0.9089130000
| 18>  N        5.2719140000     0.9246920000    -0.9471560000
| 19>  H        1.8382400000    -1.4763060000     0.8933370000
| 20>  H        3.3818990000    -1.2579660000     0.0325400000
| 21>  H        1.8526630000    -1.3616920000    -0.8846400000
| 22>  H        2.2701270000     0.8052650000    -1.8255040000
| 23>  H        2.5489210000     3.0097000000     0.3101410000
| 24>  H        1.3453990000     2.8799500000    -2.5196940000
| 25>  H        1.3656080000     4.3370400000    -1.3811070000
| 26> *
| 27>
| 28>                          ****END OF INPUT****
 Total Charge           Charge          ....    0
 Multiplicity           Mult            ....    1
 Number of Electrons    NEL             ....   52
 Basis Dimension        Dim             ....  133

MULLIKEN ATOMIC CHARGES
-----------------------
   0 C :    0.140005
   1 O :   -0.323467
   2 C :    0.207497
   3 C :   -0.027213
   4 C :   -0.014498
   5 C :   -0.242350
   6 N :    0.041709
   7 H :    0.045089
   8 H :    0.032861
   9 H :    0.010603
  10 H :    0.026624
  11 H :    0.028004
  12 H :    0.031793
  13 H :    0.043342
Sum of atomic charges:   -0.0000000

LOEWDIN ATOMIC CHARGES
----------------------
   0 C :    0.055854
   1 O :   -0.124506
   2 C :    0.030290
   3 C :   -0.017797
   4 C :   -0.028043
   5 C :   -0.055945
   6 N :   -0.051349
   7 H :    0.030291
   8 H :    0.015592
   9 H :    0.010492
  10 H :    0.034020
  11 H :    0.038293
  12 H :    0.028279
  13 H :    0.034530

  Mayer bond orders larger than 0.1
B(  0-C ,  1-O ) :   0.9934 B(  0-C ,  7-H ) :   0.9766 B(  0-C ,  8-H ) :   0.9540
B(  0-C ,  9-H ) :   0.9531 B(  1-O ,  2-C ) :   1.0754 B(  2-C ,  3-C ) :   1.0129
B(  2-C ,  5-C ) :   0.9482 B(  2-C , 10-H ) :   0.9106 B(  3-C ,  4-C ) :   2.0138
B(  3-C , 11-H ) :   0.9517 B(  4-C , 12-H ) :   0.9445 B(  4-C , 13-H ) :   0.9443
B(  5-C ,  6-N ) :   3.0741

FINAL SINGLE POINT ENERGY      -324.006424889676

DIPOLE MOMENT
-------------
                                X             Y             Z
Electronic contribution:      3.97978       0.94244       0.53490
Nuclear contribution   :     -5.13788      -1.02290      -0.78503
                        -----------------------------------------
Total Dipole Moment    :     -1.15809      -0.08046      -0.25013
                        -----------------------------------------
Magnitude (a.u.)       :      1.18753
Magnitude (Debye)      :      3.01845

                             ****ORCA TERMINATED NORMALLY****
TOTAL RUN TIME: 0 days 0 hours 0 minutes 6 seconds 47 msec
