                         Program Version 3.0.3 - RELEASE   -
|  1> ! RI PBE def2-SVP def2-SVP/J NBO PAL2
|  2> % maxcore 2000
|  3> % output
|  4>     # printlevel mini
|  5>     print[ P_Basis ] 0
|  6>     print[ P_SCFInfo ] 1
|  7>     print[ P_SCFIterInfo ] 1
|  8>     print[ P_OrbEn ] 0
|  9>     print[ P_Cartesian ] 0
| 10> end
| 11> *xyz 0 1
| 12>  C        2.8102970000    -1.1207570000     0.5657280000
| 13>  O        2.5592100000     0.1539280000     0.0434900000
| 14>  C        2.9466370000     0.3278080000    -1.3075540000
| 15>  C        2.1726580000     1.5231710000    -1.8202170000
| 16>  C        4.4573520000     0.4914130000    -1.4324890000
| 17>  C        4.9677410000     0.5491590000    -2.8612930000
| 18>  N        6.4234180000     0.5014660000    -2.8772620000
| 19>  H        2.3699230000    -1.1528340000     1.5630330000
| 20>  H        3.8814610000    -1.3411790000     0.6549350000
| 21>  H        2.3463280000    -1.9045740000    -0.0499170000
| 22>  H        2.6429670000    -0.5677380000    -1.8764120000
| 23>  H        2.4641230000     2.4226000000    -1.2717500000
| 24>  H        1.1024480000     1.3669970000    -1.6757630000
| 25>  H        2.3576410000     1.6901360000    -2.8826220000
| 26>  H        4.9601350000    -0.3454730000    -0.9397620000
| 27>  H        4.7493490000     1.4002980000    -0.8917630000
| 28>  H        4.5562770000     1.4341970000    -3.3691740000
| 29>  H        4.5993420000    -0.3257390000    -3.4092560000
| 30>  H        6.8036540000     1.3076230000    -2.3949900000
| 31>  H        6.7709200000     0.5403080000    -3.8273620000
| 32> *
| 33>
| 34>                          ****END OF INPUT****
 Total Charge           Charge          ....    0
 Multiplicity           Mult            ....    1
 Number of Electrons    NEL             ....   58
 Basis Dimension        Dim             ....  163

MULLIKEN ATOMIC CHARGES
-----------------------
   0 C :    0.156615
   1 O :   -0.340345
   2 C :    0.054486
   3 C :    0.019237
   4 C :   -0.002581
   5 C :    0.046254
   6 N :   -0.198724
   7 H :    0.025683
   8 H :    0.007965
   9 H :   -0.000632
  10 H :   -0.018225
  11 H :    0.017496
  12 H :    0.027341
  13 H :    0.021568
  14 H :    0.009368
  15 H :    0.004712
  16 H :   -0.002753
  17 H :    0.002953
  18 H :    0.085880
  19 H :    0.083704
Sum of atomic charges:    0.0000000

LOEWDIN ATOMIC CHARGES
----------------------
   0 C :    0.049201
   1 O :   -0.146364
   2 C :    0.048723
   3 C :   -0.069223
   4 C :   -0.058343
   5 C :    0.005651
   6 N :   -0.111156
   7 H :    0.022598
   8 H :    0.002515
   9 H :    0.004109
  10 H :    0.002819
  11 H :    0.028595
  12 H :    0.030390
  13 H :    0.026496
  14 H :    0.024774
  15 H :    0.021613
  16 H :   -0.001902
  17 H :    0.018584
  18 H :    0.049420
  19 H :    0.051500

  Mayer bond orders larger than 0.1
B(  0-C ,  1-O ) :   1.0232 B(  0-C ,  7-H ) :   0.9739 B(  0-C ,  8-H ) :   0.9525
B(  0-C ,  9-H ) :   0.9526 B(  1-O ,  2-C ) :   1.0125 B(  2-C ,  3-C ) :   1.0730
B(  2-C ,  4-C ) :   1.0552 B(  2-C , 10-H ) :   0.9100 B(  3-C , 11-H ) :   0.9553
B(  3-C , 12-H ) :   0.9527 B(  3-C , 13-H ) :   0.9527 B(  4-C ,  5-C ) :   1.0767
B(  4-C , 14-H ) :   0.9132 B(  4-C , 15-H ) :   0.9221 B(  5-C ,  6-N ) :   1.0954
B(  5-C , 16-H ) :   0.9308 B(  5-C , 17-H ) :   0.9298 B(  6-N , 18-H ) :   0.9681
B(  6-N , 19-H ) :   0.9638

FINAL SINGLE POINT ENERGY      -327.639212576309

DIPOLE MOMENT
-------------
                                X             Y             Z
Electronic contribution:     -0.33648       0.03865       1.78198
Nuclear contribution   :      0.50311       0.06782      -2.25381
                        -----------------------------------------
Total Dipole Moment    :      0.16663       0.10646      -0.47183
                        -----------------------------------------
Magnitude (a.u.)       :      0.51159
Magnitude (Debye)      :      1.30035

                             ****ORCA TERMINATED NORMALLY****
TOTAL RUN TIME: 0 days 0 hours 0 minutes 8 seconds 322 msec
