                         Program Version 3.0.3 - RELEASE   -
|  1> ! RI PBE def2-SVP def2-SVP/J NBO PAL2
|  2> % maxcore 2000
|  3> % output
|  4>     # printlevel mini
|  5>     print[ P_Basis ] 0
|  6>     print[ P_SCFInfo ] 1
|  7>     print[ P_SCFIterInfo ] 1
|  8>     print[ P_OrbEn ] 0
|  9>     print[ P_Cartesian ] 0
| 10> end
| 11> *xyz 0 1
| 12>  C        2.8808800000     0.6648700000     0.1086010000
| 13>  O        2.1756990000    -0.4576820000    -0.3570750000
| 14>  C        2.8894870000    -1.5297940000    -0.7906190000
| 15>  C        1.9407310000    -2.5941260000    -1.2270170000
| 16>  C        4.2255360000    -1.5858840000    -0.7988110000
| 17>  C        5.0634840000    -2.7298960000    -1.2620790000
| 18>  N        5.9565140000    -2.2949680000    -2.3331190000
| 19>  H        2.1301670000     1.3957530000     0.4061220000
| 20>  H        3.5147050000     1.0932500000    -0.6755810000
| 21>  H        3.5067900000     0.4137110000     0.9720850000
| 22>  H        1.3607720000    -2.9542750000    -0.3728670000
| 23>  H        2.4502430000    -3.4404060000    -1.6811280000
| 24>  H        1.2306760000    -2.1793070000    -1.9467700000
| 25>  H        4.7943650000    -0.7258250000    -0.4644840000
| 26>  H        4.4338270000    -3.5880770000    -1.5315690000
| 27>  H        5.6994400000    -3.0667340000    -0.4342980000
| 28>  H        5.4140190000    -2.0075880000    -3.1388280000
| 29>  H        6.5584750000    -3.0544010000    -2.6275720000
| 30> *
| 31>
| 32>                          ****END OF INPUT****
 Total Charge           Charge          ....    0
 Multiplicity           Mult            ....    1
 Number of Electrons    NEL             ....   56
 Basis Dimension        Dim             ....  153

MULLIKEN ATOMIC CHARGES
-----------------------
   0 C :    0.135562
   1 O :   -0.282596
   2 C :    0.020916
   3 C :    0.073267
   4 C :   -0.188934
   5 C :    0.162208
   6 N :   -0.225760
   7 H :    0.033826
   8 H :    0.029240
   9 H :    0.026564
  10 H :    0.035712
  11 H :    0.009202
  12 H :    0.032204
  13 H :   -0.010561
  14 H :   -0.018431
  15 H :    0.003062
  16 H :    0.081830
  17 H :    0.082687
Sum of atomic charges:   -0.0000000

LOEWDIN ATOMIC CHARGES
----------------------
   0 C :    0.057117
   1 O :   -0.077251
   2 C :    0.018075
   3 C :   -0.064756
   4 C :   -0.135062
   5 C :    0.009425
   6 N :   -0.115105
   7 H :    0.025567
   8 H :    0.015282
   9 H :    0.014692
  10 H :    0.040597
  11 H :    0.029479
  12 H :    0.038467
  13 H :    0.024541
  14 H :   -0.001171
  15 H :    0.025128
  16 H :    0.046756
  17 H :    0.048217

  Mayer bond orders larger than 0.1
B(  0-C ,  1-O ) :   0.9936 B(  0-C ,  7-H ) :   0.9704 B(  0-C ,  8-H ) :   0.9588
B(  0-C ,  9-H ) :   0.9576 B(  1-O ,  2-C ) :   1.1197 B(  2-C ,  3-C ) :   1.1131
B(  2-C ,  4-C ) :   1.7302 B(  3-C , 10-H ) :   0.9383 B(  3-C , 11-H ) :   0.9437
B(  3-C , 12-H ) :   0.9377 B(  4-C ,  5-C ) :   1.0795 B(  4-C , 13-H ) :   0.9399
B(  5-C ,  6-N ) :   1.0572 B(  5-C , 14-H ) :   0.9195 B(  5-C , 15-H ) :   0.9040
B(  6-N , 16-H ) :   0.9710 B(  6-N , 17-H ) :   0.9656

FINAL SINGLE POINT ENERGY      -326.431679990089

DIPOLE MOMENT
-------------
                                X             Y             Z
Electronic contribution:     -1.52121       1.40484       0.68929
Nuclear contribution   :      1.42208      -1.56576      -0.81855
                        -----------------------------------------
Total Dipole Moment    :     -0.09913      -0.16092      -0.12926
                        -----------------------------------------
Magnitude (a.u.)       :      0.22898
Magnitude (Debye)      :      0.58202

                             ****ORCA TERMINATED NORMALLY****
TOTAL RUN TIME: 0 days 0 hours 0 minutes 7 seconds 711 msec
