                         Program Version 3.0.3 - RELEASE   -
|  1> ! RI PBE def2-SVP def2-SVP/J NBO PAL2
|  2> % maxcore 2000
|  3> % output
|  4>     # printlevel mini
|  5>     print[ P_Basis ] 0
|  6>     print[ P_SCFInfo ] 1
|  7>     print[ P_SCFIterInfo ] 1
|  8>     print[ P_OrbEn ] 0
|  9>     print[ P_Cartesian ] 0
| 10> end
| 11> *xyz 0 1
| 12>  C        2.9472600000    -0.2852380000     1.2998030000
| 13>  O        2.2322510000    -0.0459320000     0.1048050000
| 14>  C        2.9187160000     0.2025820000    -1.0136070000
| 15>  C        2.0114810000     0.4307800000    -2.1669600000
| 16>  C        4.2664400000     0.2391260000    -1.0745640000
| 17>  C        4.9489410000     0.5065730000    -2.2820730000
| 18>  N        5.5295650000     0.7228320000    -3.2560130000
| 19>  H        2.1988120000    -0.4601950000     2.0696280000
| 20>  H        3.5571960000     0.5815960000     1.5714920000
| 21>  H        3.5872710000    -1.1674570000     1.2032380000
| 22>  H        1.3791690000    -0.4477770000    -2.3167100000
| 23>  H        2.5713350000     0.6313550000    -3.0779400000
| 24>  H        1.3518640000     1.2756610000    -1.9542640000
| 25>  H        4.8835200000     0.0657130000    -0.2035540000
| 26> *
| 27>
| 28>                          ****END OF INPUT****
 Total Charge           Charge          ....    0
 Multiplicity           Mult            ....    1
 Number of Electrons    NEL             ....   52
 Basis Dimension        Dim             ....  133

MULLIKEN ATOMIC CHARGES
-----------------------
   0 C :    0.134726
   1 O :   -0.252400
   2 C :    0.005902
   3 C :    0.092390
   4 C :   -0.188258
   5 C :   -0.127514
   6 N :    0.030475
   7 H :    0.050829
   8 H :    0.040978
   9 H :    0.039737
  10 H :    0.048496
  11 H :    0.046219
  12 H :    0.049091
  13 H :    0.029330
Sum of atomic charges:    0.0000000

LOEWDIN ATOMIC CHARGES
----------------------
   0 C :    0.065692
   1 O :   -0.041697
   2 C :    0.062527
   3 C :   -0.056222
   4 C :   -0.168375
   5 C :   -0.051304
   6 N :   -0.083981
   7 H :    0.033552
   8 H :    0.023239
   9 H :    0.023196
  10 H :    0.049396
  11 H :    0.048313
  12 H :    0.049608
  13 H :    0.046057

  Mayer bond orders larger than 0.1
B(  0-C ,  1-O ) :   0.9698 B(  0-C ,  7-H ) :   0.9700 B(  0-C ,  8-H ) :   0.9607
B(  0-C ,  9-H ) :   0.9600 B(  1-O ,  2-C ) :   1.1921 B(  2-C ,  3-C ) :   1.1255
B(  2-C ,  4-C ) :   1.6180 B(  3-C , 10-H ) :   0.9326 B(  3-C , 11-H ) :   0.9343
B(  3-C , 12-H ) :   0.9323 B(  4-C ,  5-C ) :   1.1238 B(  4-C , 13-H ) :   0.9468
B(  5-C ,  6-N ) :   2.9307

FINAL SINGLE POINT ENERGY      -324.042800378331

DIPOLE MOMENT
-------------
                                X             Y             Z
Electronic contribution:      3.49452       0.74352      -3.25132
Nuclear contribution   :     -4.55201      -1.10823       4.87492
                        -----------------------------------------
Total Dipole Moment    :     -1.05749      -0.36471       1.62360
                        -----------------------------------------
Magnitude (a.u.)       :      1.97164
Magnitude (Debye)      :      5.01152

                             ****ORCA TERMINATED NORMALLY****
TOTAL RUN TIME: 0 days 0 hours 0 minutes 6 seconds 518 msec
