                         Program Version 3.0.3 - RELEASE   -
|  1> ! RI PBE def2-SVP def2-SVP/J NBO PAL2
|  2> % maxcore 2000
|  3> % output
|  4>     # printlevel mini
|  5>     print[ P_Basis ] 0
|  6>     print[ P_SCFInfo ] 1
|  7>     print[ P_SCFIterInfo ] 1
|  8>     print[ P_OrbEn ] 0
|  9>     print[ P_Cartesian ] 0
| 10> end
| 11> *xyz 0 1
| 12>  C        1.6216140000     0.0260660000     0.0739080000
| 13>  O        2.9179170000    -0.5013670000     0.0070430000
| 14>  C        3.0909140000    -1.8763830000     0.3652410000
| 15>  C        2.5289180000    -2.1762150000     1.7474500000
| 16>  C        2.4660540000    -2.7833760000    -0.6873200000
| 17>  C        4.6076440000    -2.0562520000     0.3426880000
| 18>  N        5.2556800000    -1.1920150000     1.3115070000
| 19>  H        1.6755760000     1.0377250000    -0.3307880000
| 20>  H        1.2465420000     0.0858280000     1.1023820000
| 21>  H        0.9028990000    -0.5439850000    -0.5275840000
| 22>  H        1.4414050000    -2.0790600000     1.7676600000
| 23>  H        2.9690090000    -1.5109300000     2.4902740000
| 24>  H        2.7726530000    -3.2033130000     2.0279380000
| 25>  H        1.3776100000    -2.6982100000    -0.6992810000
| 26>  H        2.7079600000    -3.8283580000    -0.4796020000
| 27>  H        2.8441710000    -2.5306290000    -1.6803350000
| 28>  H        4.9374440000    -1.8871570000    -0.6943130000
| 29>  H        4.8340840000    -3.0973800000     0.5917230000
| 30>  H        5.0608690000    -0.2273210000     1.0717520000
| 31>  H        6.2590270000    -1.3163760000     1.2838580000
| 32> *
| 33>
| 34>                          ****END OF INPUT****
 Total Charge           Charge          ....    0
 Multiplicity           Mult            ....    1
 Number of Electrons    NEL             ....   58
 Basis Dimension        Dim             ....  163

MULLIKEN ATOMIC CHARGES
-----------------------
   0 C :    0.158007
   1 O :   -0.349404
   2 C :   -0.155917
   3 C :    0.068441
   4 C :    0.054805
   5 C :    0.129240
   6 N :   -0.196848
   7 H :    0.024705
   8 H :    0.009817
   9 H :    0.000151
  10 H :    0.012496
  11 H :    0.022684
  12 H :    0.006479
  13 H :    0.021684
  14 H :    0.014963
  15 H :    0.018313
  16 H :   -0.013190
  17 H :   -0.004380
  18 H :    0.090947
  19 H :    0.087006
Sum of atomic charges:   -0.0000000

LOEWDIN ATOMIC CHARGES
----------------------
   0 C :    0.049012
   1 O :   -0.147550
   2 C :    0.013210
   3 C :   -0.063579
   4 C :   -0.065304
   5 C :    0.008959
   6 N :   -0.105912
   7 H :    0.022556
   8 H :    0.004872
   9 H :    0.002791
  10 H :    0.020850
  11 H :    0.028679
  12 H :    0.030704
  13 H :    0.024183
  14 H :    0.030267
  15 H :    0.026732
  16 H :    0.000348
  17 H :    0.019109
  18 H :    0.047788
  19 H :    0.052285

  Mayer bond orders larger than 0.1
B(  0-C ,  1-O ) :   1.0216 B(  0-C ,  7-H ) :   0.9734 B(  0-C ,  8-H ) :   0.9542
B(  0-C ,  9-H ) :   0.9524 B(  1-O ,  2-C ) :   0.9839 B(  2-C ,  3-C ) :   1.0499
B(  2-C ,  4-C ) :   1.0640 B(  2-C ,  5-C ) :   1.0181 B(  3-C , 10-H ) :   0.9485
B(  3-C , 11-H ) :   0.9372 B(  3-C , 12-H ) :   0.9483 B(  4-C , 13-H ) :   0.9485
B(  4-C , 14-H ) :   0.9495 B(  4-C , 15-H ) :   0.9462 B(  5-C ,  6-N ) :   1.1123
B(  5-C , 16-H ) :   0.9232 B(  5-C , 17-H ) :   0.9267 B(  6-N , 18-H ) :   0.9561
B(  6-N , 19-H ) :   0.9646

FINAL SINGLE POINT ENERGY      -327.644042063761

DIPOLE MOMENT
-------------
                                X             Y             Z
Electronic contribution:      2.50076       2.24872      -0.28479
Nuclear contribution   :     -2.57670      -2.32583       0.04913
                        -----------------------------------------
Total Dipole Moment    :     -0.07594      -0.07711      -0.23566
                        -----------------------------------------
Magnitude (a.u.)       :      0.25932
Magnitude (Debye)      :      0.65915

                             ****ORCA TERMINATED NORMALLY****
TOTAL RUN TIME: 0 days 0 hours 0 minutes 8 seconds 890 msec
