                         Program Version 3.0.3 - RELEASE   -
|  1> ! RI PBE def2-SVP def2-SVP/J NBO PAL2
|  2> % maxcore 2000
|  3> % output
|  4>     # printlevel mini
|  5>     print[ P_Basis ] 0
|  6>     print[ P_SCFInfo ] 1
|  7>     print[ P_SCFIterInfo ] 1
|  8>     print[ P_OrbEn ] 0
|  9>     print[ P_Cartesian ] 0
| 10> end
| 11> *xyz 0 1
| 12>  C        2.5759470000     0.4238810000     1.1295500000
| 13>  O        2.2621510000    -0.0445620000    -0.1626970000
| 14>  C        2.7701850000     0.7031100000    -1.2453450000
| 15>  C        2.3591630000    -0.0575190000    -2.4979080000
| 16>  C        2.2400880000     2.1352360000    -1.2716040000
| 17>  C        4.2513270000     0.7425960000    -1.1743760000
| 18>  N        5.3989910000     0.7791600000    -1.1146840000
| 19>  H        2.2205370000    -0.3368680000     1.8235110000
| 20>  H        2.0740850000     1.3698700000     1.3595830000
| 21>  H        3.6571120000     0.5470290000     1.2629970000
| 22>  H        1.2695580000    -0.0793320000    -2.5513880000
| 23>  H        2.7307930000    -1.0810900000    -2.4529790000
| 24>  H        2.7533380000     0.4270770000    -3.3915760000
| 25>  H        1.1488210000     2.1039930000    -1.2806220000
| 26>  H        2.5877900000     2.6485940000    -2.1690430000
| 27>  H        2.5744860000     2.7084230000    -0.4067110000
| 28> *
| 29>
| 30>                          ****END OF INPUT****
 Total Charge           Charge          ....    0
 Multiplicity           Mult            ....    1
 Number of Electrons    NEL             ....   54
 Basis Dimension        Dim             ....  143

MULLIKEN ATOMIC CHARGES
-----------------------
   0 C :    0.144239
   1 O :   -0.319173
   2 C :   -0.119173
   3 C :    0.058948
   4 C :    0.052456
   5 C :   -0.184025
   6 N :    0.054384
   7 H :    0.041241
   8 H :    0.010102
   9 H :    0.031261
  10 H :    0.037898
  11 H :    0.043610
  12 H :    0.031970
  13 H :    0.040445
  14 H :    0.037207
  15 H :    0.038609
Sum of atomic charges:   -0.0000000

LOEWDIN ATOMIC CHARGES
----------------------
   0 C :    0.053175
   1 O :   -0.123385
   2 C :   -0.003608
   3 C :   -0.039973
   4 C :   -0.051400
   5 C :   -0.047799
   6 N :   -0.061823
   7 H :    0.029703
   8 H :    0.007570
   9 H :    0.015786
  10 H :    0.036183
  11 H :    0.038738
  12 H :    0.036556
  13 H :    0.037020
  14 H :    0.039838
  15 H :    0.033420

  Mayer bond orders larger than 0.1
B(  0-C ,  1-O ) :   0.9969 B(  0-C ,  7-H ) :   0.9742 B(  0-C ,  8-H ) :   0.9538
B(  0-C ,  9-H ) :   0.9502 B(  1-O ,  2-C ) :   1.0601 B(  2-C ,  3-C ) :   1.0524
B(  2-C ,  4-C ) :   1.0796 B(  2-C ,  5-C ) :   0.9539 B(  3-C , 10-H ) :   0.9551
B(  3-C , 11-H ) :   0.9508 B(  3-C , 12-H ) :   0.9499 B(  4-C , 13-H ) :   0.9505
B(  4-C , 14-H ) :   0.9473 B(  4-C , 15-H ) :   0.9462 B(  5-C ,  6-N ) :   3.0849

FINAL SINGLE POINT ENERGY      -325.237677413934

DIPOLE MOMENT
-------------
                                X             Y             Z
Electronic contribution:      4.96401      -1.82051      -0.04071
Nuclear contribution   :     -6.13362       2.16389       0.08360
                        -----------------------------------------
Total Dipole Moment    :     -1.16962       0.34338       0.04289
                        -----------------------------------------
Magnitude (a.u.)       :      1.21974
Magnitude (Debye)      :      3.10032

                             ****ORCA TERMINATED NORMALLY****
TOTAL RUN TIME: 0 days 0 hours 0 minutes 7 seconds 616 msec
