                         Program Version 3.0.3 - RELEASE   -
|  1> ! RI PBE def2-SVP def2-SVP/J NBO PAL2
|  2> % maxcore 2000
|  3> % output
|  4>     # printlevel mini
|  5>     print[ P_Basis ] 0
|  6>     print[ P_SCFInfo ] 1
|  7>     print[ P_SCFIterInfo ] 1
|  8>     print[ P_OrbEn ] 0
|  9>     print[ P_Cartesian ] 0
| 10> end
| 11> *xyz 0 1
| 12>  C        2.5182490000    -1.3249870000     1.2462430000
| 13>  O        3.5538160000    -0.5049190000     1.7117500000
| 14>  C        3.3579200000     0.8788740000     1.4705640000
| 15>  C        2.3774470000     1.4892790000     2.4553340000
| 16>  C        4.7368570000     1.5344950000     1.4921730000
| 17>  C        5.4338580000     1.4182740000     2.8438940000
| 18>  N        5.5027290000     0.9784160000     0.3846400000
| 19>  H        2.8231720000    -2.3591410000     1.4115600000
| 20>  H        2.3413240000    -1.1748230000     0.1724020000
| 21>  H        1.5755230000    -1.1535970000     1.7811530000
| 22>  H        2.9733610000     1.0018890000     0.4470700000
| 23>  H        2.6978210000     1.3146330000     3.4840010000
| 24>  H        1.3794180000     1.0638360000     2.3344000000
| 25>  H        2.2956690000     2.5669880000     2.2936190000
| 26>  H        4.5726100000     2.5965190000     1.2722900000
| 27>  H        5.5483240000     0.3695040000     3.1269050000
| 28>  H        4.8860960000     1.9304200000     3.6391270000
| 29>  H        6.4283860000     1.8688730000     2.7902400000
| 30>  H        5.5797050000    -0.0242190000     0.5175010000
| 31>  H        6.4445040000     1.3511860000     0.3856240000
| 32> *
| 33>
| 34>                          ****END OF INPUT****
 Total Charge           Charge          ....    0
 Multiplicity           Mult            ....    1
 Number of Electrons    NEL             ....   58
 Basis Dimension        Dim             ....  163

MULLIKEN ATOMIC CHARGES
-----------------------
   0 C :    0.154246
   1 O :   -0.352471
   2 C :    0.050674
   3 C :    0.038068
   4 C :   -0.023620
   5 C :    0.033825
   6 N :   -0.173312
   7 H :    0.029365
   8 H :    0.008311
   9 H :    0.004070
  10 H :   -0.007826
  11 H :    0.023618
  12 H :    0.013243
  13 H :    0.017293
  14 H :   -0.002034
  15 H :    0.019774
  16 H :    0.002180
  17 H :    0.002269
  18 H :    0.085337
  19 H :    0.076990
Sum of atomic charges:    0.0000000

LOEWDIN ATOMIC CHARGES
----------------------
   0 C :    0.050861
   1 O :   -0.145707
   2 C :    0.045242
   3 C :   -0.073295
   4 C :   -0.010225
   5 C :   -0.077012
   6 N :   -0.096014
   7 H :    0.022307
   8 H :    0.007211
   9 H :    0.003256
  10 H :    0.008668
  11 H :    0.027232
  12 H :    0.025360
  13 H :    0.031633
  14 H :    0.022233
  15 H :    0.024738
  16 H :    0.021577
  17 H :    0.020434
  18 H :    0.044491
  19 H :    0.047010

  Mayer bond orders larger than 0.1
B(  0-C ,  1-O ) :   1.0157 B(  0-C ,  7-H ) :   0.9761 B(  0-C ,  8-H ) :   0.9552
B(  0-C ,  9-H ) :   0.9548 B(  1-O ,  2-C ) :   0.9840 B(  2-C ,  3-C ) :   1.0869
B(  2-C ,  4-C ) :   1.0170 B(  2-C , 10-H ) :   0.9052 B(  3-C , 11-H ) :   0.9459
B(  3-C , 12-H ) :   0.9461 B(  3-C , 13-H ) :   0.9480 B(  4-C ,  5-C ) :   1.0663
B(  4-C ,  6-N ) :   1.0999 B(  4-C , 14-H ) :   0.9028 B(  5-C , 15-H ) :   0.9535
B(  5-C , 16-H ) :   0.9403 B(  5-C , 17-H ) :   0.9535 B(  6-N , 18-H ) :   0.9617
B(  6-N , 19-H ) :   0.9666

FINAL SINGLE POINT ENERGY      -327.645795790118

DIPOLE MOMENT
-------------
                                X             Y             Z
Electronic contribution:      1.27987      -1.32491      -1.82687
Nuclear contribution   :     -1.41388       1.30573       1.99242
                        -----------------------------------------
Total Dipole Moment    :     -0.13400      -0.01918       0.16555
                        -----------------------------------------
Magnitude (a.u.)       :      0.21385
Magnitude (Debye)      :      0.54355

                             ****ORCA TERMINATED NORMALLY****
TOTAL RUN TIME: 0 days 0 hours 0 minutes 8 seconds 464 msec
