                         Program Version 3.0.3 - RELEASE   -
|  1> ! RI PBE def2-SVP def2-SVP/J NBO PAL2
|  2> % maxcore 2000
|  3> % output
|  4>     # printlevel mini
|  5>     print[ P_Basis ] 0
|  6>     print[ P_SCFInfo ] 1
|  7>     print[ P_SCFIterInfo ] 1
|  8>     print[ P_OrbEn ] 0
|  9>     print[ P_Cartesian ] 0
| 10> end
| 11> *xyz 0 1
| 12>  C        1.4428390000     1.0854140000    -0.3557810000
| 13>  O        2.7865320000     0.9148400000    -0.7244860000
| 14>  C        2.9939020000    -0.0235790000    -1.7545700000
| 15>  C        2.5278250000     0.4708490000    -3.1104790000
| 16>  C        4.4992270000    -0.2949470000    -1.7242340000
| 17>  C        4.9019820000    -1.3381350000    -2.6496260000
| 18>  N        5.2032200000    -2.1690900000    -3.3848160000
| 19>  H        1.4330600000     1.7249830000     0.5266930000
| 20>  H        0.9733760000     0.1250990000    -0.1027790000
| 21>  H        0.8516060000     1.5683340000    -1.1424900000
| 22>  H        2.4674730000    -0.9582960000    -1.5057390000
| 23>  H        3.0170380000     1.4169690000    -3.3556270000
| 24>  H        1.4480240000     0.6251250000    -3.1269320000
| 25>  H        2.7689870000    -0.2590990000    -3.8859050000
| 26>  H        4.7892680000    -0.5852490000    -0.7115410000
| 27>  H        5.0368410000     0.6267820000    -1.9661080000
| 28> *
| 29>
| 30>                          ****END OF INPUT****
 Total Charge           Charge          ....    0
 Multiplicity           Mult            ....    1
 Number of Electrons    NEL             ....   54
 Basis Dimension        Dim             ....  143

MULLIKEN ATOMIC CHARGES
-----------------------
   0 C :    0.144075
   1 O :   -0.335268
   2 C :    0.023307
   3 C :    0.007436
   4 C :    0.106237
   5 C :   -0.280162
   6 N :    0.043995
   7 H :    0.037955
   8 H :    0.008232
   9 H :    0.017182
  10 H :    0.012315
  11 H :    0.022237
  12 H :    0.032234
  13 H :    0.046971
  14 H :    0.057922
  15 H :    0.055332
Sum of atomic charges:    0.0000000

LOEWDIN ATOMIC CHARGES
----------------------
   0 C :    0.052893
   1 O :   -0.143151
   2 C :    0.055477
   3 C :   -0.074212
   4 C :   -0.058263
   5 C :   -0.044760
   6 N :   -0.067593
   7 H :    0.026860
   8 H :    0.008685
   9 H :    0.007006
  10 H :    0.013327
  11 H :    0.031773
  12 H :    0.030714
  13 H :    0.040928
  14 H :    0.060842
  15 H :    0.059473

  Mayer bond orders larger than 0.1
B(  0-C ,  1-O ) :   1.0069 B(  0-C ,  7-H ) :   0.9755 B(  0-C ,  8-H ) :   0.9543
B(  0-C ,  9-H ) :   0.9584 B(  1-O ,  2-C ) :   1.0419 B(  2-C ,  3-C ) :   1.0824
B(  2-C ,  4-C ) :   1.0423 B(  2-C , 10-H ) :   0.9163 B(  3-C , 11-H ) :   0.9465
B(  3-C , 12-H ) :   0.9514 B(  3-C , 13-H ) :   0.9460 B(  4-C ,  5-C ) :   1.0739
B(  4-C , 14-H ) :   0.8907 B(  4-C , 15-H ) :   0.8905 B(  5-C ,  6-N ) :   3.0444

FINAL SINGLE POINT ENERGY      -325.240979862552

DIPOLE MOMENT
-------------
                                X             Y             Z
Electronic contribution:      6.42160      -4.22057      -1.13085
Nuclear contribution   :     -7.32595       5.09992       1.83529
                        -----------------------------------------
Total Dipole Moment    :     -0.90435       0.87935       0.70443
                        -----------------------------------------
Magnitude (a.u.)       :      1.44476
Magnitude (Debye)      :      3.67229

                             ****ORCA TERMINATED NORMALLY****
TOTAL RUN TIME: 0 days 0 hours 0 minutes 7 seconds 47 msec
