                         Program Version 3.0.3 - RELEASE   -
|  1> ! RI PBE def2-SVP def2-SVP/J NBO PAL2
|  2> % maxcore 2000
|  3> % output
|  4>     # printlevel mini
|  5>     print[ P_Basis ] 0
|  6>     print[ P_SCFInfo ] 1
|  7>     print[ P_SCFIterInfo ] 1
|  8>     print[ P_OrbEn ] 0
|  9>     print[ P_Cartesian ] 0
| 10> end
| 11> *xyz 0 1
| 12>  C        2.3177790000     0.1007540000    -1.1326420000
| 13>  O        2.1626260000    -0.0380330000     0.2646290000
| 14>  C        2.7161230000     1.0247630000     0.9855650000
| 15>  C        2.3333310000     0.9235480000     2.3889430000
| 16>  C        2.0179670000     0.8691310000     3.5423590000
| 17>  C        4.1914030000     1.0643590000     0.8557700000
| 18>  N        5.3301910000     1.0984980000     0.7089590000
| 19>  H        1.8162620000    -0.7530380000    -1.5843250000
| 20>  H        3.3742550000     0.0942650000    -1.4233180000
| 21>  H        1.8506100000     1.0265150000    -1.4918380000
| 22>  H        2.3475480000     1.9878190000     0.5925680000
| 23>  H        1.7385250000     0.8107090000     4.5683200000
| 24> *
| 25>
| 26>                          ****END OF INPUT****
 Total Charge           Charge          ....    0
 Multiplicity           Mult            ....    1
 Number of Electrons    NEL             ....   50
 Basis Dimension        Dim             ....  123

MULLIKEN ATOMIC CHARGES
-----------------------
   0 C :    0.140618
   1 O :   -0.308749
   2 C :    0.253926
   3 C :    0.377501
   4 C :   -0.439980
   5 C :   -0.242676
   6 N :    0.040834
   7 H :    0.050603
   8 H :    0.034809
   9 H :    0.013462
  10 H :    0.061068
  11 H :    0.018584
Sum of atomic charges:   -0.0000000

LOEWDIN ATOMIC CHARGES
----------------------
   0 C :    0.057726
   1 O :   -0.115622
   2 C :    0.028244
   3 C :   -0.017940
   4 C :   -0.023630
   5 C :   -0.047164
   6 N :   -0.040491
   7 H :    0.033077
   8 H :    0.017166
   9 H :    0.012285
  10 H :    0.052680
  11 H :    0.043670

  Mayer bond orders larger than 0.1
B(  0-C ,  1-O ) :   0.9861 B(  0-C ,  7-H ) :   0.9767 B(  0-C ,  8-H ) :   0.9556
B(  0-C ,  9-H ) :   0.9524 B(  1-O ,  2-C ) :   1.1416 B(  2-C ,  3-C ) :   0.9381
B(  2-C ,  5-C ) :   0.9375 B(  2-C , 10-H ) :   0.9023 B(  3-C ,  4-C ) :   2.3987
B(  3-C , 11-H ) :  -0.1038 B(  4-C , 11-H ) :   1.0935 B(  5-C ,  6-N ) :   3.0744

FINAL SINGLE POINT ENERGY      -322.754065457011

DIPOLE MOMENT
-------------
                                X             Y             Z
Electronic contribution:      2.44596       0.54234       3.87211
Nuclear contribution   :     -3.54582      -0.28385      -4.05723
                        -----------------------------------------
Total Dipole Moment    :     -1.09986       0.25849      -0.18511
                        -----------------------------------------
Magnitude (a.u.)       :      1.14489
Magnitude (Debye)      :      2.91008

                             ****ORCA TERMINATED NORMALLY****
TOTAL RUN TIME: 0 days 0 hours 0 minutes 5 seconds 421 msec
