                         Program Version 3.0.3 - RELEASE   -
|  1> ! RI PBE def2-SVP def2-SVP/J NBO PAL2
|  2> % maxcore 2000
|  3> % output
|  4>     # printlevel mini
|  5>     print[ P_Basis ] 0
|  6>     print[ P_SCFInfo ] 1
|  7>     print[ P_SCFIterInfo ] 1
|  8>     print[ P_OrbEn ] 0
|  9>     print[ P_Cartesian ] 0
| 10> end
| 11> *xyz 0 1
| 12>  C        1.0374250000     0.7510450000     1.0198020000
| 13>  O        2.4324280000     0.7300590000     0.9069750000
| 14>  C        2.8964320000     1.5783600000    -0.1167140000
| 15>  C        4.3734940000     1.4443530000    -0.2373770000
| 16>  C        5.2232920000     2.4614330000    -0.1833260000
| 17>  C        6.7030920000     2.3400290000    -0.3305470000
| 18>  N        7.1774290000     3.2090580000    -1.3999060000
| 19>  H        0.7613220000     0.0688870000     1.8242550000
| 20>  H        0.5514130000     0.4210030000     0.0902250000
| 21>  H        0.6654540000     1.7563780000     1.2638820000
| 22>  H        2.6220580000     2.6236420000     0.0911920000
| 23>  H        2.4137980000     1.2973820000    -1.0687790000
| 24>  H        4.7464350000     0.4323340000    -0.3845360000
| 25>  H        4.8482480000     3.4733080000    -0.0389340000
| 26>  H        6.9683620000     1.2792350000    -0.4544220000
| 27>  H        7.1775240000     2.6788630000     0.5982190000
| 28>  H        6.8278130000     2.8854990000    -2.2935670000
| 29>  H        8.1882040000     3.1979410000    -1.4490430000
| 30> *
| 31>
| 32>                          ****END OF INPUT****
 Total Charge           Charge          ....    0
 Multiplicity           Mult            ....    1
 Number of Electrons    NEL             ....   56
 Basis Dimension        Dim             ....  153

MULLIKEN ATOMIC CHARGES
-----------------------
   0 C :    0.148719
   1 O :   -0.353480
   2 C :    0.238353
   3 C :   -0.062763
   4 C :   -0.090977
   5 C :    0.151435
   6 N :   -0.230517
   7 H :    0.032231
   8 H :   -0.000103
   9 H :    0.001446
  10 H :   -0.008184
  11 H :   -0.003646
  12 H :   -0.002516
  13 H :   -0.001273
  14 H :   -0.009719
  15 H :    0.014974
  16 H :    0.086008
  17 H :    0.090013
Sum of atomic charges:   -0.0000000

LOEWDIN ATOMIC CHARGES
----------------------
   0 C :    0.048289
   1 O :   -0.152316
   2 C :    0.060688
   3 C :   -0.049739
   4 C :   -0.034276
   5 C :    0.007254
   6 N :   -0.111888
   7 H :    0.022828
   8 H :    0.003035
   9 H :    0.003715
  10 H :    0.007455
  11 H :    0.009544
  12 H :    0.024217
  13 H :    0.024433
  14 H :    0.003530
  15 H :    0.031044
  16 H :    0.050088
  17 H :    0.052100

  Mayer bond orders larger than 0.1
B(  0-C ,  1-O ) :   1.0253 B(  0-C ,  7-H ) :   0.9767 B(  0-C ,  8-H ) :   0.9532
B(  0-C ,  9-H ) :   0.9551 B(  1-O ,  2-C ) :   0.9950 B(  2-C ,  3-C ) :   1.0399
B(  2-C , 10-H ) :   0.9265 B(  2-C , 11-H ) :   0.9047 B(  3-C ,  4-C ) :   1.8985
B(  3-C , 12-H ) :   0.9550 B(  4-C ,  5-C ) :   1.0639 B(  4-C , 13-H ) :   0.9557
B(  5-C ,  6-N ) :   1.0569 B(  5-C , 14-H ) :   0.9274 B(  5-C , 15-H ) :   0.9123
B(  6-N , 16-H ) :   0.9718 B(  6-N , 17-H ) :   0.9665

FINAL SINGLE POINT ENERGY      -326.415597819360

DIPOLE MOMENT
-------------
                                X             Y             Z
Electronic contribution:      0.84774      -0.63465       0.77638
Nuclear contribution   :     -0.79992       0.50843      -1.18079
                        -----------------------------------------
Total Dipole Moment    :      0.04783      -0.12623      -0.40441
                        -----------------------------------------
Magnitude (a.u.)       :      0.42635
Magnitude (Debye)      :      1.08368

                             ****ORCA TERMINATED NORMALLY****
TOTAL RUN TIME: 0 days 0 hours 0 minutes 7 seconds 149 msec
