                         Program Version 3.0.3 - RELEASE   -
|  1> ! RI PBE def2-SVP def2-SVP/J NBO PAL2
|  2> % maxcore 2000
|  3> % output
|  4>     # printlevel mini
|  5>     print[ P_Basis ] 0
|  6>     print[ P_SCFInfo ] 1
|  7>     print[ P_SCFIterInfo ] 1
|  8>     print[ P_OrbEn ] 0
|  9>     print[ P_Cartesian ] 0
| 10> end
| 11> *xyz 0 1
| 12>  C        1.3327850000     0.2245310000     0.0747980000
| 13>  O        2.7000520000    -0.0886850000     0.1272380000
| 14>  C        3.0211080000    -1.2189620000    -0.6212270000
| 15>  C        4.4714070000    -1.5190160000    -0.5431710000
| 16>  C        5.3465660000    -0.7969040000     0.1539590000
| 17>  C        6.7289240000    -1.1204220000     0.2012240000
| 18>  N        7.8539970000    -1.3654340000     0.2528990000
| 19>  H        1.1796270000     1.1157130000     0.6823250000
| 20>  H        0.7187130000    -0.5923970000     0.4767010000
| 21>  H        1.0083840000     0.4324630000    -0.9535530000
| 22>  H        2.7415530000    -1.0835410000    -1.6810360000
| 23>  H        2.4555040000    -2.0998120000    -0.2692030000
| 24>  H        4.8056040000    -2.3884940000    -1.1012570000
| 25>  H        5.0219560000     0.0726600000     0.7138950000
| 26> *
| 27>
| 28>                          ****END OF INPUT****
 Total Charge           Charge          ....    0
 Multiplicity           Mult            ....    1
 Number of Electrons    NEL             ....   52
 Basis Dimension        Dim             ....  133

MULLIKEN ATOMIC CHARGES
-----------------------
   0 C :    0.148774
   1 O :   -0.342830
   2 C :    0.237039
   3 C :   -0.089329
   4 C :   -0.086000
   5 C :   -0.094848
   6 N :    0.035623
   7 H :    0.041131
   8 H :    0.013305
   9 H :    0.012120
  10 H :    0.020500
  11 H :    0.017649
  12 H :    0.032095
  13 H :    0.054773
Sum of atomic charges:   -0.0000000

LOEWDIN ATOMIC CHARGES
----------------------
   0 C :    0.055965
   1 O :   -0.138580
   2 C :    0.060158
   3 C :    0.006833
   4 C :   -0.070380
   5 C :   -0.042026
   6 N :   -0.061942
   7 H :    0.027881
   8 H :    0.009366
   9 H :    0.009263
  10 H :    0.024636
  11 H :    0.024360
  12 H :    0.042031
  13 H :    0.052435

  Mayer bond orders larger than 0.1
B(  0-C ,  1-O ) :   1.0017 B(  0-C ,  7-H ) :   0.9767 B(  0-C ,  8-H ) :   0.9572
B(  0-C ,  9-H ) :   0.9575 B(  1-O ,  2-C ) :   1.0552 B(  2-C ,  3-C ) :   1.0537
B(  2-C , 10-H ) :   0.9042 B(  2-C , 11-H ) :   0.9013 B(  3-C ,  4-C ) :   1.8486
B(  3-C ,  6-N ) :   0.1108 B(  3-C , 12-H ) :   0.9470 B(  4-C ,  5-C ) :   1.1095
B(  4-C , 13-H ) :   0.9386 B(  5-C ,  6-N ) :   2.9667

FINAL SINGLE POINT ENERGY      -324.020587544919

DIPOLE MOMENT
-------------
                                X             Y             Z
Electronic contribution:      9.61226      -0.99753       1.22896
Nuclear contribution   :    -11.74061       1.04268      -1.63128
                        -----------------------------------------
Total Dipole Moment    :     -2.12836       0.04515      -0.40232
                        -----------------------------------------
Magnitude (a.u.)       :      2.16652
Magnitude (Debye)      :      5.50685

                             ****ORCA TERMINATED NORMALLY****
TOTAL RUN TIME: 0 days 0 hours 0 minutes 6 seconds 549 msec
