                         Program Version 3.0.3 - RELEASE   -
|  1> ! RI PBE def2-SVP def2-SVP/J NBO PAL2
|  2> % maxcore 2000
|  3> % output
|  4>     # printlevel mini
|  5>     print[ P_Basis ] 0
|  6>     print[ P_SCFInfo ] 1
|  7>     print[ P_SCFIterInfo ] 1
|  8>     print[ P_OrbEn ] 0
|  9>     print[ P_Cartesian ] 0
| 10> end
| 11> *xyz 0 1
| 12>  C        1.6068240000     1.1034630000     2.2350370000
| 13>  O        2.9521500000     1.0873360000     1.8495120000
| 14>  C        3.1045800000     1.0856190000     0.4486780000
| 15>  C        4.5566030000     1.1270330000     0.0854840000
| 16>  C        5.0979250000     0.1898740000    -0.6832240000
| 17>  C        5.3206000000     2.3030090000     0.6188340000
| 18>  N        6.7434200000     2.2314290000     0.3408830000
| 19>  H        1.5755950000     1.1060710000     3.3248910000
| 20>  H        1.0697540000     0.2178680000     1.8666080000
| 21>  H        1.0897150000     1.9990200000     1.8614110000
| 22>  H        2.5902860000     1.9670330000     0.0260460000
| 23>  H        2.6348750000     0.1926920000     0.0125230000
| 24>  H        4.5095730000    -0.6492170000    -1.0379780000
| 25>  H        6.1336280000     0.2514220000    -0.9941460000
| 26>  H        5.0762290000     2.3976660000     1.6869930000
| 27>  H        4.9240230000     3.2087320000     0.1409640000
| 28>  H        7.1610130000     1.4720280000     0.8661580000
| 29>  H        7.1999070000     3.0829340000     0.6404360000
| 30> *
| 31>
| 32>                          ****END OF INPUT****
 Total Charge           Charge          ....    0
 Multiplicity           Mult            ....    1
 Number of Electrons    NEL             ....   56
 Basis Dimension        Dim             ....  153

MULLIKEN ATOMIC CHARGES
-----------------------
   0 C :    0.145573
   1 O :   -0.349445
   2 C :    0.246689
   3 C :   -0.225584
   4 C :   -0.012678
   5 C :    0.162345
   6 N :   -0.206437
   7 H :    0.035186
   8 H :    0.004493
   9 H :    0.002121
  10 H :   -0.005890
  11 H :   -0.016902
  12 H :    0.005078
  13 H :    0.013973
  14 H :    0.011706
  15 H :    0.005059
  16 H :    0.095060
  17 H :    0.089651
Sum of atomic charges:   -0.0000000

LOEWDIN ATOMIC CHARGES
----------------------
   0 C :    0.048124
   1 O :   -0.149237
   2 C :    0.069412
   3 C :   -0.052283
   4 C :   -0.062765
   5 C :    0.009334
   6 N :   -0.103607
   7 H :    0.023482
   8 H :    0.004847
   9 H :    0.004055
  10 H :    0.008265
  11 H :    0.007672
  12 H :    0.019426
  13 H :    0.020714
  14 H :    0.012702
  15 H :    0.031260
  16 H :    0.053908
  17 H :    0.054691

  Mayer bond orders larger than 0.1
B(  0-C ,  1-O ) :   1.0205 B(  0-C ,  7-H ) :   0.9761 B(  0-C ,  8-H ) :   0.9554
B(  0-C ,  9-H ) :   0.9539 B(  1-O ,  2-C ) :   1.0072 B(  2-C ,  3-C ) :   1.0444
B(  2-C , 10-H ) :   0.9068 B(  2-C , 11-H ) :   0.9147 B(  3-C ,  4-C ) :   2.0070
B(  3-C ,  5-C ) :   1.0154 B(  4-C , 12-H ) :   0.9248 B(  4-C , 13-H ) :   0.9175
B(  5-C ,  6-N ) :   1.1176 B(  5-C , 14-H ) :   0.9094 B(  5-C , 15-H ) :   0.9026
B(  6-N , 16-H ) :   0.9642 B(  6-N , 17-H ) :   0.9620

FINAL SINGLE POINT ENERGY      -326.417270078910

DIPOLE MOMENT
-------------
                                X             Y             Z
Electronic contribution:      1.57660      -0.40898       0.12762
Nuclear contribution   :     -1.85957       0.65478       0.20505
                        -----------------------------------------
Total Dipole Moment    :     -0.28298       0.24580       0.33267
                        -----------------------------------------
Magnitude (a.u.)       :      0.50116
Magnitude (Debye)      :      1.27385

                             ****ORCA TERMINATED NORMALLY****
TOTAL RUN TIME: 0 days 0 hours 0 minutes 7 seconds 914 msec
