                         Program Version 3.0.3 - RELEASE   -
|  1> ! RI PBE def2-SVP def2-SVP/J NBO PAL2
|  2> % maxcore 2000
|  3> % output
|  4>     # printlevel mini
|  5>     print[ P_Basis ] 0
|  6>     print[ P_SCFInfo ] 1
|  7>     print[ P_SCFIterInfo ] 1
|  8>     print[ P_OrbEn ] 0
|  9>     print[ P_Cartesian ] 0
| 10> end
| 11> *xyz 0 1
| 12>  C        1.3713210000     0.1648180000     0.3624470000
| 13>  O        2.7744450000     0.1201640000     0.4002110000
| 14>  C        3.2849720000    -1.0335640000    -0.1876820000
| 15>  C        4.7850130000    -1.0249600000    -0.1181210000
| 16>  C        5.5041560000    -0.0485240000     0.4291980000
| 17>  C        5.4198200000    -2.1678670000    -0.6947590000
| 18>  N        5.8957210000    -3.1037840000    -1.1688680000
| 19>  H        1.0634800000     1.0941060000     0.8404630000
| 20>  H        0.9287180000    -0.6805860000     0.9053960000
| 21>  H        0.9976320000     0.1525090000    -0.6698340000
| 22>  H        2.9756350000    -1.1124530000    -1.2427580000
| 23>  H        2.9079910000    -1.9376510000     0.3178960000
| 24>  H        5.0072060000     0.8096670000     0.8613110000
| 25>  H        6.5850010000    -0.0954960000     0.4512090000
| 26> *
| 27>
| 28>                          ****END OF INPUT****
 Total Charge           Charge          ....    0
 Multiplicity           Mult            ....    1
 Number of Electrons    NEL             ....   52
 Basis Dimension        Dim             ....  133

MULLIKEN ATOMIC CHARGES
-----------------------
   0 C :    0.148759
   1 O :   -0.342788
   2 C :    0.274021
   3 C :   -0.243248
   4 C :    0.052993
   5 C :   -0.132882
   6 N :    0.053323
   7 H :    0.039302
   8 H :    0.014716
   9 H :    0.013439
  10 H :    0.020446
  11 H :    0.020062
  12 H :    0.042128
  13 H :    0.039728
Sum of atomic charges:   -0.0000000

LOEWDIN ATOMIC CHARGES
----------------------
   0 C :    0.057268
   1 O :   -0.136297
   2 C :    0.074987
   3 C :   -0.082369
   4 C :    0.005631
   5 C :   -0.034940
   6 N :   -0.052623
   7 H :    0.027330
   8 H :    0.010096
   9 H :    0.009864
  10 H :    0.023736
  11 H :    0.023828
  12 H :    0.035314
  13 H :    0.038175

  Mayer bond orders larger than 0.1
B(  0-C ,  1-O ) :   0.9990 B(  0-C ,  7-H ) :   0.9767 B(  0-C ,  8-H ) :   0.9581
B(  0-C ,  9-H ) :   0.9580 B(  1-O ,  2-C ) :   1.0538 B(  2-C ,  3-C ) :   0.9826
B(  2-C , 10-H ) :   0.9104 B(  2-C , 11-H ) :   0.9086 B(  3-C ,  4-C ) :   1.9551
B(  3-C ,  5-C ) :   1.1000 B(  4-C ,  6-N ) :   0.1089 B(  4-C , 12-H ) :   0.9196
B(  4-C , 13-H ) :   0.9322 B(  5-C ,  6-N ) :   2.9885

FINAL SINGLE POINT ENERGY      -324.017208739298

DIPOLE MOMENT
-------------
                                X             Y             Z
Electronic contribution:      6.26427      -3.68623      -1.67775
Nuclear contribution   :     -7.32981       4.61230       2.11904
                        -----------------------------------------
Total Dipole Moment    :     -1.06554       0.92607       0.44128
                        -----------------------------------------
Magnitude (a.u.)       :      1.47909
Magnitude (Debye)      :      3.75956

                             ****ORCA TERMINATED NORMALLY****
TOTAL RUN TIME: 0 days 0 hours 0 minutes 5 seconds 888 msec
