                         Program Version 3.0.3 - RELEASE   -
|  1> ! RI PBE def2-SVP def2-SVP/J NBO PAL2
|  2> % maxcore 2000
|  3> % output
|  4>     # printlevel mini
|  5>     print[ P_Basis ] 0
|  6>     print[ P_SCFInfo ] 1
|  7>     print[ P_SCFIterInfo ] 1
|  8>     print[ P_OrbEn ] 0
|  9>     print[ P_Cartesian ] 0
| 10> end
| 11> *xyz 0 1
| 12>  C        1.1193180000     2.3085610000    -0.8083070000
| 13>  O        2.5080260000     2.1408960000    -0.7989300000
| 14>  C        2.8924480000     0.8187370000    -1.0804570000
| 15>  C        4.4037120000     0.7015310000    -1.0794290000
| 16>  C        4.8210510000    -0.7587710000    -1.1573850000
| 17>  C        5.0185130000     1.5241010000    -2.2064310000
| 18>  N        6.4698530000     1.5792500000    -2.0798110000
| 19>  H        0.9096240000     3.3535500000    -0.5776120000
| 20>  H        0.6301920000     1.6738320000    -0.0554500000
| 21>  H        0.6891320000     2.0683740000    -1.7911430000
| 22>  H        2.4922130000     0.5090980000    -2.0615660000
| 23>  H        2.4648040000     0.1358970000    -0.3291850000
| 24>  H        4.7551350000     1.1211910000    -0.1270960000
| 25>  H        4.3904830000    -1.2380800000    -2.0429980000
| 26>  H        4.4894860000    -1.3188870000    -0.2793800000
| 27>  H        5.9060820000    -0.8357320000    -1.2314030000
| 28>  H        4.5401210000     2.5119950000    -2.2225490000
| 29>  H        4.7829240000     1.0368930000    -3.1603390000
| 30>  H        6.7255690000     2.1504970000    -1.2826880000
| 31>  H        6.8803110000     2.0187480000    -2.8936630000
| 32> *
| 33>
| 34>                          ****END OF INPUT****
 Total Charge           Charge          ....    0
 Multiplicity           Mult            ....    1
 Number of Electrons    NEL             ....   58
 Basis Dimension        Dim             ....  163

MULLIKEN ATOMIC CHARGES
-----------------------
   0 C :    0.154136
   1 O :   -0.346599
   2 C :    0.214135
   3 C :   -0.141994
   4 C :    0.020398
   5 C :    0.084953
   6 N :   -0.198443
   7 H :    0.028559
   8 H :    0.002747
   9 H :    0.001155
  10 H :   -0.025425
  11 H :   -0.009394
  12 H :    0.000460
  13 H :    0.003871
  14 H :    0.014075
  15 H :    0.029204
  16 H :    0.002428
  17 H :   -0.008877
  18 H :    0.086542
  19 H :    0.088068
Sum of atomic charges:    0.0000000

LOEWDIN ATOMIC CHARGES
----------------------
   0 C :    0.050148
   1 O :   -0.147802
   2 C :    0.065707
   3 C :   -0.061434
   4 C :   -0.057357
   5 C :    0.009636
   6 N :   -0.108670
   7 H :    0.021890
   8 H :    0.004082
   9 H :    0.003683
  10 H :    0.000138
  11 H :    0.003950
  12 H :    0.023794
  13 H :    0.021351
  14 H :    0.022263
  15 H :    0.028601
  16 H :    0.001096
  17 H :    0.016054
  18 H :    0.050294
  19 H :    0.052577

  Mayer bond orders larger than 0.1
B(  0-C ,  1-O ) :   1.0210 B(  0-C ,  7-H ) :   0.9762 B(  0-C ,  8-H ) :   0.9550
B(  0-C ,  9-H ) :   0.9547 B(  1-O ,  2-C ) :   1.0204 B(  2-C ,  3-C ) :   1.0415
B(  2-C , 10-H ) :   0.9108 B(  2-C , 11-H ) :   0.9263 B(  3-C ,  4-C ) :   1.0680
B(  3-C ,  5-C ) :   1.0557 B(  3-C , 12-H ) :   0.9054 B(  4-C , 13-H ) :   0.9596
B(  4-C , 14-H ) :   0.9609 B(  4-C , 15-H ) :   0.9490 B(  5-C ,  6-N ) :   1.0991
B(  5-C , 16-H ) :   0.9321 B(  5-C , 17-H ) :   0.9282 B(  6-N , 18-H ) :   0.9704
B(  6-N , 19-H ) :   0.9644

FINAL SINGLE POINT ENERGY      -327.639913333229

DIPOLE MOMENT
-------------
                                X             Y             Z
Electronic contribution:      0.41789       2.62815       0.71532
Nuclear contribution   :     -0.71586      -2.37157      -0.83746
                        -----------------------------------------
Total Dipole Moment    :     -0.29797       0.25658      -0.12214
                        -----------------------------------------
Magnitude (a.u.)       :      0.41175
Magnitude (Debye)      :      1.04658

                             ****ORCA TERMINATED NORMALLY****
TOTAL RUN TIME: 0 days 0 hours 0 minutes 8 seconds 191 msec
