                         Program Version 3.0.3 - RELEASE   -
|  1> ! RI PBE def2-SVP def2-SVP/J NBO PAL2
|  2> % maxcore 2000
|  3> % output
|  4>     # printlevel mini
|  5>     print[ P_Basis ] 0
|  6>     print[ P_SCFInfo ] 1
|  7>     print[ P_SCFIterInfo ] 1
|  8>     print[ P_OrbEn ] 0
|  9>     print[ P_Cartesian ] 0
| 10> end
| 11> *xyz 0 1
| 12>  C        1.4216420000     0.6026640000     0.7606530000
| 13>  O        2.7592710000     0.2598690000     0.5325930000
| 14>  C        3.6342630000     1.3448500000     0.7141410000
| 15>  C        5.0519880000     0.9225290000     0.3545810000
| 16>  C        5.5072980000    -0.2191620000     1.2661160000
| 17>  C        5.9703580000     2.1250910000     0.5228910000
| 18>  N        5.0384530000     0.5523680000    -1.0590500000
| 19>  H        0.8177150000    -0.2902490000     0.5959990000
| 20>  H        1.0857350000     1.3922070000     0.0742280000
| 21>  H        1.2651660000     0.9516300000     1.7911490000
| 22>  H        3.5999620000     1.6892650000     1.7595350000
| 23>  H        3.3364480000     2.1813340000     0.0650960000
| 24>  H        6.5215160000    -0.5304140000     0.9998870000
| 25>  H        4.8434200000    -1.0794190000     1.1651840000
| 26>  H        5.5153040000     0.0829920000     2.3177690000
| 27>  H        6.9934930000     1.8605190000     0.2416790000
| 28>  H        5.6475470000     2.9467890000    -0.1194420000
| 29>  H        5.9895530000     2.4690910000     1.5599760000
| 30>  H        4.3616280000    -0.1889450000    -1.2014380000
| 31>  H        5.9443580000     0.1883830000    -1.3315270000
| 32> *
| 33>
| 34>                          ****END OF INPUT****
 Total Charge           Charge          ....    0
 Multiplicity           Mult            ....    1
 Number of Electrons    NEL             ....   58
 Basis Dimension        Dim             ....  163

MULLIKEN ATOMIC CHARGES
-----------------------
   0 C :    0.153974
   1 O :   -0.349508
   2 C :    0.233619
   3 C :   -0.266850
   4 C :    0.070911
   5 C :    0.074587
   6 N :   -0.155500
   7 H :    0.031538
   8 H :    0.008983
   9 H :    0.000936
  10 H :   -0.018952
  11 H :   -0.004099
  12 H :   -0.000399
  13 H :    0.019807
  14 H :    0.002085
  15 H :    0.007853
  16 H :    0.017989
  17 H :    0.008574
  18 H :    0.087369
  19 H :    0.077083
Sum of atomic charges:    0.0000000

LOEWDIN ATOMIC CHARGES
----------------------
   0 C :    0.051762
   1 O :   -0.145599
   2 C :    0.065389
   3 C :   -0.039199
   4 C :   -0.066602
   5 C :   -0.050544
   6 N :   -0.088172
   7 H :    0.022423
   8 H :    0.006815
   9 H :    0.004644
  10 H :    0.001865
  11 H :    0.006481
  12 H :    0.018619
  13 H :    0.023308
  14 H :    0.022368
  15 H :    0.024409
  16 H :    0.026369
  17 H :    0.023477
  18 H :    0.045877
  19 H :    0.046311

  Mayer bond orders larger than 0.1
B(  0-C ,  1-O ) :   1.0166 B(  0-C ,  7-H ) :   0.9760 B(  0-C ,  8-H ) :   0.9567
B(  0-C ,  9-H ) :   0.9544 B(  1-O ,  2-C ) :   1.0243 B(  2-C ,  3-C ) :   1.0107
B(  2-C , 10-H ) :   0.9202 B(  2-C , 11-H ) :   0.9178 B(  3-C ,  4-C ) :   1.0399
B(  3-C ,  5-C ) :   1.0504 B(  3-C ,  6-N ) :   1.0488 B(  4-C , 12-H ) :   0.9536
B(  4-C , 13-H ) :   0.9516 B(  4-C , 14-H ) :   0.9477 B(  5-C , 15-H ) :   0.9519
B(  5-C , 16-H ) :   0.9522 B(  5-C , 17-H ) :   0.9554 B(  6-N , 18-H ) :   0.9571
B(  6-N , 19-H ) :   0.9640

FINAL SINGLE POINT ENERGY      -327.646556673842

DIPOLE MOMENT
-------------
                                X             Y             Z
Electronic contribution:     -1.67932      -1.41135      -1.82068
Nuclear contribution   :      1.57165       1.36352       2.08657
                        -----------------------------------------
Total Dipole Moment    :     -0.10767      -0.04783       0.26589
                        -----------------------------------------
Magnitude (a.u.)       :      0.29082
Magnitude (Debye)      :      0.73922

                             ****ORCA TERMINATED NORMALLY****
TOTAL RUN TIME: 0 days 0 hours 0 minutes 8 seconds 448 msec
