                         Program Version 3.0.3 - RELEASE   -
|  1> ! RI PBE def2-SVP def2-SVP/J NBO PAL2
|  2> % maxcore 2000
|  3> % output
|  4>     # printlevel mini
|  5>     print[ P_Basis ] 0
|  6>     print[ P_SCFInfo ] 1
|  7>     print[ P_SCFIterInfo ] 1
|  8>     print[ P_OrbEn ] 0
|  9>     print[ P_Cartesian ] 0
| 10> end
| 11> *xyz 0 1
| 12>  C        1.2126130000     0.0545800000    -0.0347130000
| 13>  O        2.6073240000    -0.0528640000     0.0772980000
| 14>  C        3.0518020000     0.0941500000     1.3946650000
| 15>  C        4.5743230000    -0.0245340000     1.3898490000
| 16>  C        5.2457980000     1.0800280000     0.5765240000
| 17>  C        5.0587120000    -0.0341240000     2.7655490000
| 18>  N        5.4327370000    -0.0260900000     3.8528550000
| 19>  H        0.9587450000    -0.0747570000    -1.0864990000
| 20>  H        0.8576690000     1.0382650000     0.3005650000
| 21>  H        0.7018460000    -0.7192270000     0.5538850000
| 22>  H        2.6175870000    -0.6807770000     2.0427680000
| 23>  H        2.7571120000     1.0733670000     1.8027520000
| 24>  H        4.8241630000    -0.9978640000     0.9525080000
| 25>  H        5.0309660000     2.0596740000     1.0081470000
| 26>  H        4.8652920000     1.0560620000    -0.4440830000
| 27>  H        6.3276210000     0.9451010000     0.5553290000
| 28> *
| 29>
| 30>                          ****END OF INPUT****
 Total Charge           Charge          ....    0
 Multiplicity           Mult            ....    1
 Number of Electrons    NEL             ....   54
 Basis Dimension        Dim             ....  143

MULLIKEN ATOMIC CHARGES
-----------------------
   0 C :    0.149902
   1 O :   -0.345340
   2 C :    0.196109
   3 C :   -0.097405
   4 C :    0.016467
   5 C :   -0.231175
   6 N :    0.054566
   7 H :    0.036843
   8 H :    0.008680
   9 H :    0.012597
  10 H :    0.019840
  11 H :    0.004672
  12 H :    0.050940
  13 H :    0.032791
  14 H :    0.044364
  15 H :    0.046149
Sum of atomic charges:   -0.0000000

LOEWDIN ATOMIC CHARGES
----------------------
   0 C :    0.055844
   1 O :   -0.144972
   2 C :    0.075637
   3 C :   -0.070934
   4 C :   -0.041262
   5 C :   -0.036547
   6 N :   -0.067147
   7 H :    0.026013
   8 H :    0.008182
   9 H :    0.008966
  10 H :    0.013703
  11 H :    0.009729
  12 H :    0.057955
  13 H :    0.033145
  14 H :    0.035343
  15 H :    0.036346

  Mayer bond orders larger than 0.1
B(  0-C ,  1-O ) :   1.0053 B(  0-C ,  7-H ) :   0.9768 B(  0-C ,  8-H ) :   0.9574
B(  0-C ,  9-H ) :   0.9588 B(  1-O ,  2-C ) :   1.0487 B(  2-C ,  3-C ) :   1.0407
B(  2-C , 10-H ) :   0.9319 B(  2-C , 11-H ) :   0.9192 B(  3-C ,  4-C ) :   1.0798
B(  3-C ,  5-C ) :   1.0352 B(  3-C , 12-H ) :   0.8720 B(  4-C , 13-H ) :   0.9606
B(  4-C , 14-H ) :   0.9542 B(  4-C , 15-H ) :   0.9633 B(  5-C ,  6-N ) :   3.0759

FINAL SINGLE POINT ENERGY      -325.238031027074

DIPOLE MOMENT
-------------
                                X             Y             Z
Electronic contribution:      4.08971      -1.94780       4.95819
Nuclear contribution   :     -4.96024       2.05525      -6.09343
                        -----------------------------------------
Total Dipole Moment    :     -0.87053       0.10745      -1.13524
                        -----------------------------------------
Magnitude (a.u.)       :      1.43462
Magnitude (Debye)      :      3.64652

                             ****ORCA TERMINATED NORMALLY****
TOTAL RUN TIME: 0 days 0 hours 0 minutes 7 seconds 195 msec
