                         Program Version 3.0.3 - RELEASE   -
|  1> ! RI PBE def2-SVP def2-SVP/J NBO PAL2
|  2> % maxcore 2000
|  3> % output
|  4>     # printlevel mini
|  5>     print[ P_Basis ] 0
|  6>     print[ P_SCFInfo ] 1
|  7>     print[ P_SCFIterInfo ] 1
|  8>     print[ P_OrbEn ] 0
|  9>     print[ P_Cartesian ] 0
| 10> end
| 11> *xyz 0 1
| 12>  C        0.9102760000    -0.4273880000    -0.2629190000
| 13>  O        2.3109040000    -0.4680700000    -0.2815520000
| 14>  C        2.8416520000    -0.5951140000     1.0149300000
| 15>  C        4.2916360000    -0.6379740000     0.9748580000
| 16>  C        5.4926210000    -0.6772120000     0.9795730000
| 17>  C        6.9462270000    -0.7140670000     0.9407170000
| 18>  N        7.5259830000     0.5847210000     1.2636910000
| 19>  H        0.5739300000    -0.3275840000    -1.2946400000
| 20>  H        0.5372830000     0.4282880000     0.3178120000
| 21>  H        0.4838000000    -1.3465530000     0.1634680000
| 22>  H        2.4613920000    -1.5115490000     1.4944130000
| 23>  H        2.5190480000     0.2499730000     1.6441330000
| 24>  H        7.2424410000    -1.1069940000    -0.0449270000
| 25>  H        7.2994250000    -1.4406080000     1.6806370000
| 26>  H        7.1763870000     1.2858300000     0.6221080000
| 27>  H        8.5319230000     0.5481810000     1.1525480000
| 28> *
| 29>
| 30>                          ****END OF INPUT****
 Total Charge           Charge          ....    0
 Multiplicity           Mult            ....    1
 Number of Electrons    NEL             ....   54
 Basis Dimension        Dim             ....  143

MULLIKEN ATOMIC CHARGES
-----------------------
   0 C :    0.153063
   1 O :   -0.339480
   2 C :    0.215977
   3 C :   -0.119252
   4 C :   -0.160849
   5 C :    0.158570
   6 N :   -0.219659
   7 H :    0.033886
   8 H :    0.003226
   9 H :    0.002033
  10 H :    0.015731
  11 H :    0.021509
  12 H :    0.019192
  13 H :    0.029143
  14 H :    0.096318
  15 H :    0.090589
Sum of atomic charges:   -0.0000000

LOEWDIN ATOMIC CHARGES
----------------------
   0 C :    0.049977
   1 O :   -0.145254
   2 C :    0.052432
   3 C :   -0.063761
   4 C :   -0.046172
   5 C :    0.000692
   6 N :   -0.108017
   7 H :    0.024718
   8 H :    0.004754
   9 H :    0.004395
  10 H :    0.024454
  11 H :    0.026043
  12 H :    0.024411
  13 H :    0.043459
  14 H :    0.054499
  15 H :    0.053368

  Mayer bond orders larger than 0.1
B(  0-C ,  1-O ) :   1.0184 B(  0-C ,  7-H ) :   0.9771 B(  0-C ,  8-H ) :   0.9549
B(  0-C ,  9-H ) :   0.9544 B(  1-O ,  2-C ) :   1.0542 B(  2-C ,  3-C ) :   1.0102
B(  2-C , 10-H ) :   0.9042 B(  2-C , 11-H ) :   0.9030 B(  3-C ,  4-C ) :   2.6634
B(  4-C ,  5-C ) :   1.0729 B(  5-C ,  6-N ) :   1.0837 B(  5-C , 12-H ) :   0.8989
B(  5-C , 13-H ) :   0.8905 B(  6-N , 14-H ) :   0.9688 B(  6-N , 15-H ) :   0.9636

FINAL SINGLE POINT ENERGY      -325.171828710031

DIPOLE MOMENT
-------------
                                X             Y             Z
Electronic contribution:      1.71137      -0.38659      -0.12710
Nuclear contribution   :     -1.70621       0.32127       0.02336
                        -----------------------------------------
Total Dipole Moment    :      0.00516      -0.06533      -0.10374
                        -----------------------------------------
Magnitude (a.u.)       :      0.12270
Magnitude (Debye)      :      0.31189

                             ****ORCA TERMINATED NORMALLY****
TOTAL RUN TIME: 0 days 0 hours 0 minutes 6 seconds 731 msec
