                         Program Version 3.0.3 - RELEASE   -
|  1> ! RI PBE def2-SVP def2-SVP/J NBO PAL2
|  2> % maxcore 2000
|  3> % output
|  4>     # printlevel mini
|  5>     print[ P_Basis ] 0
|  6>     print[ P_SCFInfo ] 1
|  7>     print[ P_SCFIterInfo ] 1
|  8>     print[ P_OrbEn ] 0
|  9>     print[ P_Cartesian ] 0
| 10> end
| 11> *xyz 0 1
| 12>  C        0.9387900000    -0.0531260000    -0.0658760000
| 13>  O        2.3446790000    -0.0410960000    -0.0502660000
| 14>  C        2.8445080000     0.9876610000     0.7547900000
| 15>  C        4.2953050000     0.9686900000     0.7465870000
| 16>  C        5.4992630000     0.9758080000     0.7579770000
| 17>  C        6.8664400000     0.9827670000     0.7697110000
| 18>  N        8.0213430000     0.9910450000     0.7815030000
| 19>  H        0.6337920000    -0.8765300000    -0.7098980000
| 20>  H        0.5334230000     0.8852140000    -0.4672820000
| 21>  H        0.5272010000    -0.2128730000     0.9396110000
| 22>  H        2.4962970000     0.8843470000     1.7955980000
| 23>  H        2.5025780000     1.9736540000     0.3996840000
| 24> *
| 25>
| 26>                          ****END OF INPUT****
 Total Charge           Charge          ....    0
 Multiplicity           Mult            ....    1
 Number of Electrons    NEL             ....   50
 Basis Dimension        Dim             ....  123

MULLIKEN ATOMIC CHARGES
-----------------------
   0 C :    0.142030
   1 O :   -0.334797
   2 C :    0.219096
   3 C :   -0.134513
   4 C :    0.015750
   5 C :   -0.152096
   6 N :    0.098672
   7 H :    0.048619
   8 H :    0.013016
   9 H :    0.013074
  10 H :    0.037358
  11 H :    0.033792
Sum of atomic charges:    0.0000000

LOEWDIN ATOMIC CHARGES
----------------------
   0 C :    0.054345
   1 O :   -0.136795
   2 C :    0.054069
   3 C :    0.040179
   4 C :   -0.067746
   5 C :   -0.044912
   6 N :   -0.021339
   7 H :    0.030958
   8 H :    0.009611
   9 H :    0.009719
  10 H :    0.036215
  11 H :    0.035696

  Mayer bond orders larger than 0.1
B(  0-C ,  1-O ) :   1.0023 B(  0-C ,  7-H ) :   0.9770 B(  0-C ,  8-H ) :   0.9568
B(  0-C ,  9-H ) :   0.9569 B(  1-O ,  2-C ) :   1.0752 B(  2-C ,  3-C ) :   1.0083
B(  2-C , 10-H ) :   0.8995 B(  2-C , 11-H ) :   0.8973 B(  3-C ,  4-C ) :   2.4236
B(  3-C ,  6-N ) :   0.1919 B(  4-C ,  5-C ) :   1.0141 B(  4-C ,  6-N ) :   0.1057
B(  5-C ,  6-N ) :   2.8720

FINAL SINGLE POINT ENERGY      -322.775040297596

DIPOLE MOMENT
-------------
                                X             Y             Z
Electronic contribution:     11.44600       0.83744       0.70826
Nuclear contribution   :    -13.56468      -0.59083      -0.52308
                        -----------------------------------------
Total Dipole Moment    :     -2.11868       0.24661       0.18518
                        -----------------------------------------
Magnitude (a.u.)       :      2.14101
Magnitude (Debye)      :      5.44201

                             ****ORCA TERMINATED NORMALLY****
TOTAL RUN TIME: 0 days 0 hours 0 minutes 5 seconds 406 msec
