                         Program Version 3.0.3 - RELEASE   -
|  1> ! RI PBE def2-SVP def2-SVP/J NBO PAL2
|  2> % maxcore 2000
|  3> % output
|  4>     # printlevel mini
|  5>     print[ P_Basis ] 0
|  6>     print[ P_SCFInfo ] 1
|  7>     print[ P_SCFIterInfo ] 1
|  8>     print[ P_OrbEn ] 0
|  9>     print[ P_Cartesian ] 0
| 10> end
| 11> *xyz 0 1
| 12>  C        1.7763430000    -0.7856940000    -0.0204760000
| 13>  O        2.7093710000    -1.7434770000    -0.4314290000
| 14>  C        3.7953920000    -1.1747520000    -1.1209230000
| 15>  C        4.7681490000    -2.2601980000    -1.5174560000
| 16>  C        4.2160210000    -3.3119560000    -2.4731010000
| 17>  C        3.8675830000    -2.7373290000    -3.8339470000
| 18>  N        5.2434640000    -4.3353210000    -2.6517210000
| 19>  H        0.9733950000    -1.3069420000     0.5017110000
| 20>  H        1.3494920000    -0.2424500000    -0.8758250000
| 21>  H        2.2258340000    -0.0506400000     0.6626620000
| 22>  H        4.3034100000    -0.4395880000    -0.4772650000
| 23>  H        3.4323290000    -0.6262550000    -2.0043000000
| 24>  H        5.1112020000    -2.7585270000    -0.6033930000
| 25>  H        5.6498660000    -1.7987890000    -1.9750090000
| 26>  H        3.2955130000    -3.7157010000    -2.0258610000
| 27>  H        4.7504040000    -2.2851430000    -4.2939860000
| 28>  H        3.0803450000    -1.9843320000    -3.7633910000
| 29>  H        3.5055210000    -3.5235140000    -4.5026740000
| 30>  H        5.4626660000    -4.7715350000    -1.7635360000
| 31>  H        4.9044910000    -5.0693760000    -3.2623910000
| 32> *
| 33>
| 34>                          ****END OF INPUT****
 Total Charge           Charge          ....    0
 Multiplicity           Mult            ....    1
 Number of Electrons    NEL             ....   58
 Basis Dimension        Dim             ....  163

MULLIKEN ATOMIC CHARGES
-----------------------
   0 C :    0.147981
   1 O :   -0.348358
   2 C :    0.167760
   3 C :    0.025566
   4 C :   -0.052946
   5 C :    0.001783
   6 N :   -0.180820
   7 H :    0.031438
   8 H :    0.000880
   9 H :    0.004679
  10 H :   -0.006736
  11 H :   -0.012328
  12 H :    0.003328
  13 H :    0.005735
  14 H :   -0.000553
  15 H :    0.018038
  16 H :    0.020648
  17 H :    0.010390
  18 H :    0.082264
  19 H :    0.081253
Sum of atomic charges:   -0.0000000

LOEWDIN ATOMIC CHARGES
----------------------
   0 C :    0.048445
   1 O :   -0.150494
   2 C :    0.060204
   3 C :   -0.050759
   4 C :   -0.000862
   5 C :   -0.067480
   6 N :   -0.106913
   7 H :    0.022511
   8 H :    0.004166
   9 H :    0.004221
  10 H :    0.005115
  11 H :    0.001133
  12 H :    0.025042
  13 H :    0.030119
  14 H :    0.003294
  15 H :    0.025608
  16 H :    0.024768
  17 H :    0.024116
  18 H :    0.048750
  19 H :    0.049016

  Mayer bond orders larger than 0.1
B(  0-C ,  1-O ) :   1.0225 B(  0-C ,  7-H ) :   0.9764 B(  0-C ,  8-H ) :   0.9548
B(  0-C ,  9-H ) :   0.9553 B(  1-O ,  2-C ) :   1.0140 B(  2-C ,  3-C ) :   1.0877
B(  2-C , 10-H ) :   0.9221 B(  2-C , 11-H ) :   0.9138 B(  3-C ,  4-C ) :   1.0584
B(  3-C , 12-H ) :   0.9209 B(  3-C , 13-H ) :   0.9134 B(  4-C ,  5-C ) :   1.0815
B(  4-C ,  6-N ) :   1.0551 B(  4-C , 14-H ) :   0.9154 B(  5-C , 15-H ) :   0.9547
B(  5-C , 16-H ) :   0.9568 B(  5-C , 17-H ) :   0.9533 B(  6-N , 18-H ) :   0.9596
B(  6-N , 19-H ) :   0.9588

FINAL SINGLE POINT ENERGY      -327.641380663126

DIPOLE MOMENT
-------------
                                X             Y             Z
Electronic contribution:      0.29680      -1.54830       2.16082
Nuclear contribution   :     -0.62610       1.65578      -2.01817
                        -----------------------------------------
Total Dipole Moment    :     -0.32930       0.10748       0.14265
                        -----------------------------------------
Magnitude (a.u.)       :      0.37462
Magnitude (Debye)      :      0.95220

                             ****ORCA TERMINATED NORMALLY****
TOTAL RUN TIME: 0 days 0 hours 0 minutes 8 seconds 301 msec
