                         Program Version 3.0.3 - RELEASE   -
|  1> ! RI PBE def2-SVP def2-SVP/J NBO PAL2
|  2> % maxcore 2000
|  3> % output
|  4>     # printlevel mini
|  5>     print[ P_Basis ] 0
|  6>     print[ P_SCFInfo ] 1
|  7>     print[ P_SCFIterInfo ] 1
|  8>     print[ P_OrbEn ] 0
|  9>     print[ P_Cartesian ] 0
| 10> end
| 11> *xyz 0 1
| 12>  C        1.6804460000     0.1199850000     0.5116300000
| 13>  O        2.9737520000    -0.1010070000     0.0174430000
| 14>  C        3.0619280000    -1.2629720000    -0.7657230000
| 15>  C        4.4701250000    -1.3791510000    -1.3012050000
| 16>  C        4.8706690000    -0.1982930000    -2.1884070000
| 17>  C        4.0649660000    -0.1103780000    -3.3967100000
| 18>  N        3.4164440000    -0.0617870000    -4.3451020000
| 19>  H        1.7047720000     1.0385340000     1.0979820000
| 20>  H        1.3505630000    -0.7055350000     1.1574140000
| 21>  H        0.9533830000     0.2355570000    -0.3032760000
| 22>  H        2.3392230000    -1.2200140000    -1.5953750000
| 23>  H        2.8183700000    -2.1509240000    -0.1631000000
| 24>  H        4.5627120000    -2.3139920000    -1.8597920000
| 25>  H        5.1692960000    -1.4258040000    -0.4622310000
| 26>  H        5.9199330000    -0.2794580000    -2.4841000000
| 27>  H        4.7573070000     0.7354590000    -1.6319360000
| 28> *
| 29>
| 30>                          ****END OF INPUT****
 Total Charge           Charge          ....    0
 Multiplicity           Mult            ....    1
 Number of Electrons    NEL             ....   54
 Basis Dimension        Dim             ....  143

MULLIKEN ATOMIC CHARGES
-----------------------
   0 C :    0.140903
   1 O :   -0.354501
   2 C :    0.153507
   3 C :   -0.025744
   4 C :    0.064105
   5 C :   -0.288675
   6 N :    0.041058
   7 H :    0.035513
   8 H :    0.007219
   9 H :    0.017106
  10 H :    0.019832
  11 H :    0.001472
  12 H :    0.031874
  13 H :    0.036010
  14 H :    0.055484
  15 H :    0.064838
Sum of atomic charges:   -0.0000000

LOEWDIN ATOMIC CHARGES
----------------------
   0 C :    0.050778
   1 O :   -0.151909
   2 C :    0.059505
   3 C :   -0.036869
   4 C :   -0.058117
   5 C :   -0.044739
   6 N :   -0.073390
   7 H :    0.024783
   8 H :    0.006393
   9 H :    0.010505
  10 H :    0.011756
  11 H :    0.008625
  12 H :    0.037636
  13 H :    0.036666
  14 H :    0.058807
  15 H :    0.059571

  Mayer bond orders larger than 0.1
B(  0-C ,  1-O ) :   1.0124 B(  0-C ,  7-H ) :   0.9761 B(  0-C ,  8-H ) :   0.9564
B(  0-C ,  9-H ) :   0.9579 B(  1-O ,  2-C ) :   1.0209 B(  2-C ,  3-C ) :   1.0892
B(  2-C , 10-H ) :   0.9213 B(  2-C , 11-H ) :   0.9243 B(  3-C ,  4-C ) :   1.0890
B(  3-C , 12-H ) :   0.9288 B(  3-C , 13-H ) :   0.9242 B(  4-C ,  5-C ) :   1.1123
B(  4-C , 14-H ) :   0.8944 B(  4-C , 15-H ) :   0.8920 B(  5-C ,  6-N ) :   3.0439

FINAL SINGLE POINT ENERGY      -325.239884230637

DIPOLE MOMENT
-------------
                                X             Y             Z
Electronic contribution:      1.83764       1.70677      -5.90469
Nuclear contribution   :     -1.49397      -2.07313       7.15029
                        -----------------------------------------
Total Dipole Moment    :      0.34367      -0.36636       1.24560
                        -----------------------------------------
Magnitude (a.u.)       :      1.34307
Magnitude (Debye)      :      3.41381

                             ****ORCA TERMINATED NORMALLY****
TOTAL RUN TIME: 0 days 0 hours 0 minutes 6 seconds 515 msec
