                         Program Version 3.0.3 - RELEASE   -
|  1> ! RI PBE def2-SVP def2-SVP/J NBO PAL2
|  2> % maxcore 2000
|  3> % output
|  4>     # printlevel mini
|  5>     print[ P_Basis ] 0
|  6>     print[ P_SCFInfo ] 1
|  7>     print[ P_SCFIterInfo ] 1
|  8>     print[ P_OrbEn ] 0
|  9>     print[ P_Cartesian ] 0
| 10> end
| 11> *xyz 0 1
| 12>  C        3.7819520000     0.0412230000    -1.0464150000
| 13>  O        2.7524430000    -0.1560970000    -0.1064810000
| 14>  C        3.1258020000    -0.3206770000     1.1743340000
| 15>  C        4.3676720000    -0.3208110000     1.6762150000
| 16>  C        4.6204450000    -0.5106630000     3.0818170000
| 17>  N        5.8124000000    -0.5079120000     3.5438490000
| 18>  N        5.9993430000    -0.6870550000     4.8504300000
| 19>  H        3.2990720000     0.1539330000    -2.0155000000
| 20>  H        4.4614170000    -0.8176780000    -1.0724570000
| 21>  H        4.3579100000     0.9441250000    -0.8159720000
| 22>  H        2.2563990000    -0.4640540000     1.8082260000
| 23>  H        5.2389720000    -0.1781690000     1.0481980000
| 24>  H        3.7574260000    -0.6579280000     3.7451100000
| 25>  H        5.2322890000    -0.8260770000     5.4904950000
| 26>  H        6.9426580000    -0.6803610000     5.1788500000
| 27> *
| 28>
| 29>                          ****END OF INPUT****
 Total Charge           Charge          ....    0
 Multiplicity           Mult            ....    1
 Number of Electrons    NEL             ....   54
 Basis Dimension        Dim             ....  138

MULLIKEN ATOMIC CHARGES
-----------------------
   0 C :    0.129234
   1 O :   -0.259856
   2 C :    0.115097
   3 C :   -0.037256
   4 C :   -0.043473
   5 N :   -0.098834
   6 N :   -0.061968
   7 H :    0.035826
   8 H :    0.033283
   9 H :    0.031177
  10 H :    0.002610
  11 H :   -0.006701
  12 H :   -0.049616
  13 H :    0.091177
  14 H :    0.119299
Sum of atomic charges:   -0.0000000

LOEWDIN ATOMIC CHARGES
----------------------
   0 C :    0.060223
   1 O :   -0.063224
   2 C :    0.016969
   3 C :   -0.120429
   4 C :   -0.066062
   5 N :   -0.050976
   6 N :    0.025988
   7 H :    0.026531
   8 H :    0.017071
   9 H :    0.017072
  10 H :    0.018949
  11 H :    0.030601
  12 H :   -0.011537
  13 H :    0.038659
  14 H :    0.060165

  Mayer bond orders larger than 0.1
B(  0-C ,  1-O ) :   0.9850 B(  0-C ,  7-H ) :   0.9725 B(  0-C ,  8-H ) :   0.9598
B(  0-C ,  9-H ) :   0.9588 B(  1-O ,  2-C ) :   1.1598 B(  2-C ,  3-C ) :   1.6221
B(  2-C , 10-H ) :   0.9698 B(  3-C ,  4-C ) :   1.1316 B(  3-C , 11-H ) :   0.9603
B(  4-C ,  5-N ) :   1.7617 B(  4-C ,  6-N ) :   0.1315 B(  4-C , 12-H ) :   0.9357
B(  5-N ,  6-N ) :   1.1341 B(  6-N , 13-H ) :   0.9385 B(  6-N , 14-H ) :   0.9653

FINAL SINGLE POINT ENERGY      -341.231485752247

DIPOLE MOMENT
-------------
                                X             Y             Z
Electronic contribution:     -0.49014      -0.31747       1.97506
Nuclear contribution   :      0.63990       0.26323      -1.55893
                        -----------------------------------------
Total Dipole Moment    :      0.14976      -0.05424       0.41613
                        -----------------------------------------
Magnitude (a.u.)       :      0.44557
Magnitude (Debye)      :      1.13254

                             ****ORCA TERMINATED NORMALLY****
TOTAL RUN TIME: 0 days 0 hours 0 minutes 6 seconds 936 msec
