                         Program Version 3.0.3 - RELEASE   -
|  1> ! RI PBE def2-SVP def2-SVP/J NBO PAL2
|  2> % maxcore 2000
|  3> % output
|  4>     # printlevel mini
|  5>     print[ P_Basis ] 0
|  6>     print[ P_SCFInfo ] 1
|  7>     print[ P_SCFIterInfo ] 1
|  8>     print[ P_OrbEn ] 0
|  9>     print[ P_Cartesian ] 0
| 10> end
| 11> *xyz 0 1
| 12>  C        4.5574110000    -0.4257590000    -0.5170710000
| 13>  O        3.3158920000     0.0075290000    -0.0050650000
| 14>  C        3.3425740000     0.9330270000     0.9592120000
| 15>  C        4.4155540000     1.5014130000     1.5213260000
| 16>  C        4.3235440000     2.4910580000     2.6022010000
| 17>  N        3.1079960000     3.1288930000     2.7503680000
| 18>  N        5.2649590000     2.7581970000     3.4243170000
| 19>  H        4.3325080000    -1.1570350000    -1.2907110000
| 20>  H        5.1618170000    -0.8941970000     0.2662940000
| 21>  H        5.1148650000     0.4105450000    -0.9511680000
| 22>  H        2.3361240000     1.1788370000     1.2806630000
| 23>  H        5.4186410000     1.2141720000     1.2315870000
| 24>  H        2.6376830000     3.3899140000     1.8992240000
| 25>  H        3.1420010000     3.8645400000     3.4397600000
| 26>  H        6.0628400000     2.1517670000     3.2588620000
| 27> *
| 28>
| 29>                          ****END OF INPUT****
 Total Charge           Charge          ....    0
 Multiplicity           Mult            ....    1
 Number of Electrons    NEL             ....   54
 Basis Dimension        Dim             ....  138

MULLIKEN ATOMIC CHARGES
-----------------------
   0 C :    0.117091
   1 O :   -0.250018
   2 C :    0.129413
   3 C :   -0.061918
   4 C :   -0.152914
   5 N :   -0.075302
   6 N :   -0.108107
   7 H :    0.048332
   8 H :    0.040095
   9 H :    0.039048
  10 H :    0.012319
  11 H :   -0.020630
  12 H :    0.107624
  13 H :    0.104475
  14 H :    0.070491
Sum of atomic charges:   -0.0000000

LOEWDIN ATOMIC CHARGES
----------------------
   0 C :    0.061280
   1 O :   -0.051250
   2 C :    0.040371
   3 C :   -0.145511
   4 C :   -0.002758
   5 N :   -0.019108
   6 N :   -0.175788
   7 H :    0.030734
   8 H :    0.020928
   9 H :    0.020409
  10 H :    0.023034
  11 H :    0.026830
  12 H :    0.063030
  13 H :    0.067838
  14 H :    0.039961

  Mayer bond orders larger than 0.1
B(  0-C ,  1-O ) :   0.9767 B(  0-C ,  7-H ) :   0.9722 B(  0-C ,  8-H ) :   0.9604
B(  0-C ,  9-H ) :   0.9595 B(  1-O ,  2-C ) :   1.1868 B(  2-C ,  3-C ) :   1.6475
B(  2-C , 10-H ) :   0.9629 B(  3-C ,  4-C ) :   1.0284 B(  3-C , 11-H ) :   0.9488
B(  4-C ,  5-N ) :   1.2242 B(  4-C ,  6-N ) :   1.9090 B(  5-N , 12-H ) :   0.9408
B(  5-N , 13-H ) :   0.9402 B(  6-N , 14-H ) :   0.9280

FINAL SINGLE POINT ENERGY      -341.269173143004

DIPOLE MOMENT
-------------
                                X             Y             Z
Electronic contribution:     -1.82695       1.10544       1.58017
Nuclear contribution   :      1.74765      -1.48447      -2.71358
                        -----------------------------------------
Total Dipole Moment    :     -0.07931      -0.37903      -1.13341
                        -----------------------------------------
Magnitude (a.u.)       :      1.19774
Magnitude (Debye)      :      3.04440

                             ****ORCA TERMINATED NORMALLY****
TOTAL RUN TIME: 0 days 0 hours 0 minutes 6 seconds 795 msec
