                         Program Version 3.0.3 - RELEASE   -
|  1> ! RI PBE def2-SVP def2-SVP/J NBO PAL2
|  2> % maxcore 2000
|  3> % output
|  4>     # printlevel mini
|  5>     print[ P_Basis ] 0
|  6>     print[ P_SCFInfo ] 1
|  7>     print[ P_SCFIterInfo ] 1
|  8>     print[ P_OrbEn ] 0
|  9>     print[ P_Cartesian ] 0
| 10> end
| 11> *xyz 0 1
| 12>  C        1.2267500000     0.2633120000    -0.1361820000
| 13>  O        2.6109200000     0.3598840000     0.0780940000
| 14>  C        3.0452170000     1.4004070000     0.8346200000
| 15>  C        2.2691390000     2.3359400000     1.3898000000
| 16>  C        4.5024790000     1.3331620000     0.9449300000
| 17>  N        5.1696280000     2.1954150000     1.6043780000
| 18>  N        6.4860860000     2.0882980000     1.6726090000
| 19>  H        1.0697630000    -0.6189170000    -0.7550390000
| 20>  H        0.8437260000     1.1482730000    -0.6564770000
| 21>  H        0.6865250000     0.1475330000     0.8100340000
| 22>  H        1.1950020000     2.3484640000     1.2831900000
| 23>  H        2.7398860000     3.1148490000     1.9717580000
| 24>  H        4.9812330000     0.4962960000     0.4255570000
| 25>  H        6.9727530000     2.7853090000     2.1985560000
| 26>  H        6.9900920000     1.3419850000     1.2165710000
| 27> *
| 28>
| 29>                          ****END OF INPUT****
 Total Charge           Charge          ....    0
 Multiplicity           Mult            ....    1
 Number of Electrons    NEL             ....   54
 Basis Dimension        Dim             ....  138

MULLIKEN ATOMIC CHARGES
-----------------------
   0 C :    0.137232
   1 O :   -0.281368
   2 C :    0.111058
   3 C :   -0.122396
   4 C :   -0.032208
   5 N :   -0.059494
   6 N :   -0.048817
   7 H :    0.033457
   8 H :    0.027132
   9 H :    0.027434
  10 H :    0.008356
  11 H :    0.014383
  12 H :   -0.038084
  13 H :    0.125718
  14 H :    0.097596
Sum of atomic charges:   -0.0000000

LOEWDIN ATOMIC CHARGES
----------------------
   0 C :    0.059542
   1 O :   -0.074547
   2 C :    0.011836
   3 C :   -0.150584
   4 C :   -0.076538
   5 N :   -0.019438
   6 N :    0.042595
   7 H :    0.024981
   8 H :    0.015040
   9 H :    0.015370
  10 H :    0.018928
  11 H :    0.028789
  12 H :   -0.004345
  13 H :    0.064482
  14 H :    0.043889

  Mayer bond orders larger than 0.1
B(  0-C ,  1-O ) :   0.9908 B(  0-C ,  7-H ) :   0.9728 B(  0-C ,  8-H ) :   0.9580
B(  0-C ,  9-H ) :   0.9578 B(  1-O ,  2-C ) :   1.1246 B(  2-C ,  3-C ) :   1.8261
B(  2-C ,  4-C ) :   1.0570 B(  3-C , 10-H ) :   0.9306 B(  3-C , 11-H ) :   0.9061
B(  4-C ,  5-N ) :   1.8068 B(  4-C ,  6-N ) :   0.1485 B(  4-C , 12-H ) :   0.9238
B(  5-N ,  6-N ) :   1.1708 B(  6-N , 13-H ) :   0.9622 B(  6-N , 14-H ) :   0.9361

FINAL SINGLE POINT ENERGY      -341.228415787593

DIPOLE MOMENT
-------------
                                X             Y             Z
Electronic contribution:      3.96134       0.20155       0.55963
Nuclear contribution   :     -3.32585      -0.45352      -0.66765
                        -----------------------------------------
Total Dipole Moment    :      0.63550      -0.25197      -0.10801
                        -----------------------------------------
Magnitude (a.u.)       :      0.69211
Magnitude (Debye)      :      1.75920

                             ****ORCA TERMINATED NORMALLY****
TOTAL RUN TIME: 0 days 0 hours 0 minutes 6 seconds 975 msec
