                         Program Version 3.0.3 - RELEASE   -
|  1> ! RI PBE def2-SVP def2-SVP/J NBO PAL2
|  2> % maxcore 2000
|  3> % output
|  4>     # printlevel mini
|  5>     print[ P_Basis ] 0
|  6>     print[ P_SCFInfo ] 1
|  7>     print[ P_SCFIterInfo ] 1
|  8>     print[ P_OrbEn ] 0
|  9>     print[ P_Cartesian ] 0
| 10> end
| 11> *xyz 0 1
| 12>  C        1.2203060000     0.4148730000    -0.1193780000
| 13>  O        2.6212100000     0.4200650000     0.0133520000
| 14>  C        3.1236630000     0.2765120000     1.2547830000
| 15>  C        2.4098570000     0.1816970000     2.3792100000
| 16>  C        4.6152770000     0.1972940000     1.2139600000
| 17>  N        5.2480670000     0.4189680000     2.4132630000
| 18>  N        5.2843600000    -0.1069250000     0.1766240000
| 19>  H        1.0122750000     0.5103880000    -1.1834260000
| 20>  H        0.7699200000     1.2571170000     0.4165180000
| 21>  H        0.7927850000    -0.5202100000     0.2577250000
| 22>  H        1.3302890000     0.2265080000     2.3939380000
| 23>  H        2.9155700000     0.0094190000     3.3176210000
| 24>  H        4.8405650000     1.1121510000     3.0177350000
| 25>  H        6.2508810000     0.4714820000     2.3259700000
| 26>  H        4.6542730000    -0.3018380000    -0.5957850000
| 27> *
| 28>
| 29>                          ****END OF INPUT****
 Total Charge           Charge          ....    0
 Multiplicity           Mult            ....    1
 Number of Electrons    NEL             ....   54
 Basis Dimension        Dim             ....  138

MULLIKEN ATOMIC CHARGES
-----------------------
   0 C :    0.134240
   1 O :   -0.272853
   2 C :    0.119692
   3 C :   -0.124008
   4 C :   -0.172235
   5 N :   -0.068329
   6 N :   -0.065541
   7 H :    0.041691
   8 H :    0.034324
   9 H :    0.034109
  10 H :    0.020073
  11 H :    0.016522
  12 H :    0.110028
  13 H :    0.110584
  14 H :    0.081704
Sum of atomic charges:   -0.0000000

LOEWDIN ATOMIC CHARGES
----------------------
   0 C :    0.064402
   1 O :   -0.058235
   2 C :    0.003465
   3 C :   -0.137373
   4 C :   -0.013257
   5 N :   -0.005730
   6 N :   -0.151057
   7 H :    0.029332
   8 H :    0.018316
   9 H :    0.019096
  10 H :    0.022990
  11 H :    0.028200
  12 H :    0.066168
  13 H :    0.071337
  14 H :    0.042347

  Mayer bond orders larger than 0.1
B(  0-C ,  1-O ) :   0.9772 B(  0-C ,  7-H ) :   0.9728 B(  0-C ,  8-H ) :   0.9602
B(  0-C ,  9-H ) :   0.9587 B(  1-O ,  2-C ) :   1.1495 B(  2-C ,  3-C ) :   1.8232
B(  2-C ,  4-C ) :   0.9243 B(  3-C , 10-H ) :   0.9343 B(  3-C , 11-H ) :   0.9128
B(  4-C ,  5-N ) :   1.2433 B(  4-C ,  6-N ) :   1.9949 B(  5-N , 12-H ) :   0.9366
B(  5-N , 13-H ) :   0.9405 B(  6-N , 14-H ) :   0.9144

FINAL SINGLE POINT ENERGY      -341.268327656023

DIPOLE MOMENT
-------------
                                X             Y             Z
Electronic contribution:      3.97145      -0.13058      -1.16948
Nuclear contribution   :     -4.96638       0.59098       1.57812
                        -----------------------------------------
Total Dipole Moment    :     -0.99493       0.46040       0.40864
                        -----------------------------------------
Magnitude (a.u.)       :      1.16998
Magnitude (Debye)      :      2.97384

                             ****ORCA TERMINATED NORMALLY****
TOTAL RUN TIME: 0 days 0 hours 0 minutes 7 seconds 367 msec
