                         Program Version 3.0.3 - RELEASE   -
|  1> ! RI PBE def2-SVP def2-SVP/J NBO PAL2
|  2> % maxcore 2000
|  3> % output
|  4>     # printlevel mini
|  5>     print[ P_Basis ] 0
|  6>     print[ P_SCFInfo ] 1
|  7>     print[ P_SCFIterInfo ] 1
|  8>     print[ P_OrbEn ] 0
|  9>     print[ P_Cartesian ] 0
| 10> end
| 11> *xyz 0 1
| 12>  C        1.0965910000     0.1725410000    -0.6879300000
| 13>  O        1.2008480000    -1.1820620000    -1.0785040000
| 14>  C        2.4488270000    -1.6811110000    -1.1869690000
| 15>  C        2.4908610000    -3.0819810000    -1.5958310000
| 16>  C        1.4454000000    -3.7588010000    -2.0614740000
| 17>  N        3.4489640000    -0.9375650000    -0.9251550000
| 18>  N        4.7177610000    -1.4768730000    -1.0420790000
| 19>  H        1.5353600000     0.3314410000     0.2999120000
| 20>  H        0.0305090000     0.3935450000    -0.6676520000
| 21>  H        1.6080550000     0.8262360000    -1.3990660000
| 22>  H        3.4467770000    -3.5775280000    -1.4647070000
| 23>  H        0.4798380000    -3.2844680000    -2.1874620000
| 24>  H        1.5310280000    -4.8067620000    -2.3228300000
| 25>  H        5.3752010000    -0.7118720000    -1.0070550000
| 26>  H        4.8563830000    -1.9800210000    -1.9126070000
| 27> *
| 28>
| 29>                          ****END OF INPUT****
 Total Charge           Charge          ....    0
 Multiplicity           Mult            ....    1
 Number of Electrons    NEL             ....   54
 Basis Dimension        Dim             ....  138

MULLIKEN ATOMIC CHARGES
-----------------------
   0 C :    0.167452
   1 O :   -0.277309
   2 C :    0.089365
   3 C :   -0.075466
   4 C :    0.006507
   5 N :   -0.192130
   6 N :   -0.053394
   7 H :    0.021996
   8 H :    0.028485
   9 H :    0.017249
  10 H :    0.000955
  11 H :    0.035144
  12 H :    0.026682
  13 H :    0.109185
  14 H :    0.095279
Sum of atomic charges:   -0.0000000

LOEWDIN ATOMIC CHARGES
----------------------
   0 C :    0.060938
   1 O :   -0.073491
   2 C :   -0.018006
   3 C :   -0.067445
   4 C :   -0.021925
   5 N :   -0.104062
   6 N :   -0.014471
   7 H :    0.016909
   8 H :    0.021041
   9 H :    0.014065
  10 H :    0.029061
  11 H :    0.028488
  12 H :    0.026878
  13 H :    0.058381
  14 H :    0.043638

  Mayer bond orders larger than 0.1
B(  0-C ,  1-O ) :   0.9689 B(  0-C ,  7-H ) :   0.9653 B(  0-C ,  8-H ) :   0.9728
B(  0-C ,  9-H ) :   0.9622 B(  1-O ,  2-C ) :   1.1775 B(  2-C ,  3-C ) :   1.0841
B(  2-C ,  5-N ) :   1.7183 B(  3-C ,  4-C ) :   1.9282 B(  3-C , 10-H ) :   0.9420
B(  4-C , 11-H ) :   0.9427 B(  4-C , 12-H ) :   0.9327 B(  5-N ,  6-N ) :   1.0769
B(  6-N , 13-H ) :   0.9684 B(  6-N , 14-H ) :   0.9424

FINAL SINGLE POINT ENERGY      -341.232310665502

DIPOLE MOMENT
-------------
                                X             Y             Z
Electronic contribution:      0.79136      -0.33123       0.38398
Nuclear contribution   :     -0.47994       0.43292      -0.85184
                        -----------------------------------------
Total Dipole Moment    :      0.31143       0.10169      -0.46785
                        -----------------------------------------
Magnitude (a.u.)       :      0.57115
Magnitude (Debye)      :      1.45176

                             ****ORCA TERMINATED NORMALLY****
TOTAL RUN TIME: 0 days 0 hours 0 minutes 7 seconds 281 msec
