                         Program Version 3.0.3 - RELEASE   -
|  1> ! RI PBE def2-SVP def2-SVP/J NBO PAL2
|  2> % maxcore 2000
|  3> % output
|  4>     # printlevel mini
|  5>     print[ P_Basis ] 0
|  6>     print[ P_SCFInfo ] 1
|  7>     print[ P_SCFIterInfo ] 1
|  8>     print[ P_OrbEn ] 0
|  9>     print[ P_Cartesian ] 0
| 10> end
| 11> *xyz 0 1
| 12>  C        3.0616600000     0.2350650000     1.0924290000
| 13>  O        2.7543140000     0.5406350000    -0.2435990000
| 14>  C        3.0734490000    -0.5011410000    -1.1493140000
| 15>  C        2.4032600000    -0.1560980000    -2.4627030000
| 16>  C        4.5560100000    -0.6428620000    -1.3052210000
| 17>  N        5.1459180000    -1.7208820000    -0.9922260000
| 18>  N        6.4960150000    -1.7827320000    -1.0948130000
| 19>  H        2.7646250000     1.0942940000     1.6943480000
| 20>  H        4.1320980000     0.0480910000     1.2391680000
| 21>  H        2.5091270000    -0.6501190000     1.4358520000
| 22>  H        2.6902300000    -1.4583540000    -0.7674790000
| 23>  H        2.7936020000     0.7872390000    -2.8524450000
| 24>  H        1.3275070000    -0.0453520000    -2.3164940000
| 25>  H        2.5819020000    -0.9399680000    -3.2010060000
| 26>  H        5.1028910000     0.2307980000    -1.6873450000
| 27>  H        6.8062940000    -2.7337940000    -1.2102460000
| 28>  H        6.9167100000    -1.1480200000    -1.7669030000
| 29> *
| 30>
| 31>                          ****END OF INPUT****
 Total Charge           Charge          ....    0
 Multiplicity           Mult            ....    1
 Number of Electrons    NEL             ....   56
 Basis Dimension        Dim             ....  148

MULLIKEN ATOMIC CHARGES
-----------------------
   0 C :    0.149264
   1 O :   -0.343962
   2 C :    0.137884
   3 C :    0.009075
   4 C :   -0.083300
   5 N :   -0.103444
   6 N :   -0.050140
   7 H :    0.028581
   8 H :    0.015705
   9 H :    0.002171
  10 H :   -0.014323
  11 H :    0.017422
  12 H :    0.031319
  13 H :    0.027428
  14 H :   -0.027465
  15 H :    0.116694
  16 H :    0.087092
Sum of atomic charges:    0.0000000

LOEWDIN ATOMIC CHARGES
----------------------
   0 C :    0.048264
   1 O :   -0.147388
   2 C :    0.035455
   3 C :   -0.065588
   4 C :   -0.064114
   5 N :   -0.039863
   6 N :    0.007263
   7 H :    0.021297
   8 H :    0.006000
   9 H :    0.005939
  10 H :    0.010305
  11 H :    0.027027
  12 H :    0.031569
  13 H :    0.031689
  14 H :   -0.008887
  15 H :    0.060088
  16 H :    0.040944

  Mayer bond orders larger than 0.1
B(  0-C ,  1-O ) :   1.0147 B(  0-C ,  7-H ) :   0.9762 B(  0-C ,  8-H ) :   0.9542
B(  0-C ,  9-H ) :   0.9547 B(  1-O ,  2-C ) :   1.0095 B(  2-C ,  3-C ) :   1.0674
B(  2-C ,  4-C ) :   1.0175 B(  2-C , 10-H ) :   0.9080 B(  3-C , 11-H ) :   0.9537
B(  3-C , 12-H ) :   0.9524 B(  3-C , 13-H ) :   0.9588 B(  4-C ,  5-N ) :   1.8508
B(  4-C ,  6-N ) :   0.1317 B(  4-C , 14-H ) :   0.9205 B(  5-N ,  6-N ) :   1.1150
B(  6-N , 15-H ) :   0.9630 B(  6-N , 16-H ) :   0.9424

FINAL SINGLE POINT ENERGY      -342.437143295877

DIPOLE MOMENT
-------------
                                X             Y             Z
Electronic contribution:      2.31908      -1.08009       0.28664
Nuclear contribution   :     -1.65451       0.82001      -0.70578
                        -----------------------------------------
Total Dipole Moment    :      0.66457      -0.26009      -0.41915
                        -----------------------------------------
Magnitude (a.u.)       :      0.82764
Magnitude (Debye)      :      2.10368

                             ****ORCA TERMINATED NORMALLY****
TOTAL RUN TIME: 0 days 0 hours 0 minutes 7 seconds 773 msec
