                         Program Version 3.0.3 - RELEASE   -
|  1> ! RI PBE def2-SVP def2-SVP/J NBO PAL2
|  2> % maxcore 2000
|  3> % output
|  4>     # printlevel mini
|  5>     print[ P_Basis ] 0
|  6>     print[ P_SCFInfo ] 1
|  7>     print[ P_SCFIterInfo ] 1
|  8>     print[ P_OrbEn ] 0
|  9>     print[ P_Cartesian ] 0
| 10> end
| 11> *xyz 0 1
| 12>  C        3.1692960000    -0.6223680000    -0.9403620000
| 13>  O        2.9162090000    -0.4221850000     0.4293970000
| 14>  C        3.1998730000     0.8777930000     0.8703450000
| 15>  C        2.5166600000     1.0719120000     2.2103070000
| 16>  C        4.7042630000     1.1094410000     0.9974120000
| 17>  N        5.0713340000     2.4290780000     0.9875550000
| 18>  N        5.5638060000     0.1935650000     1.1823860000
| 19>  H        2.9096370000    -1.6562030000    -1.1673260000
| 20>  H        4.2235090000    -0.4559320000    -1.1898230000
| 21>  H        2.5484630000     0.0425050000    -1.5559410000
| 22>  H        2.7959890000     1.6051810000     0.1450120000
| 23>  H        2.8816340000     0.3258110000     2.9184420000
| 24>  H        1.4375860000     0.9534850000     2.1016390000
| 25>  H        2.7306410000     2.0633590000     2.6115940000
| 26>  H        4.5076740000     3.0759860000     0.4641940000
| 27>  H        6.0642470000     2.5979730000     0.9673070000
| 28>  H        5.0894680000    -0.7058900000     1.2265520000
| 29> *
| 30>
| 31>                          ****END OF INPUT****
 Total Charge           Charge          ....    0
 Multiplicity           Mult            ....    1
 Number of Electrons    NEL             ....   56
 Basis Dimension        Dim             ....  148

MULLIKEN ATOMIC CHARGES
-----------------------
   0 C :    0.146248
   1 O :   -0.328405
   2 C :    0.105175
   3 C :    0.062462
   4 C :   -0.237484
   5 N :   -0.047853
   6 N :   -0.096198
   7 H :    0.033200
   8 H :    0.016194
   9 H :    0.005117
  10 H :   -0.028291
  11 H :    0.025165
  12 H :    0.037062
  13 H :    0.016873
  14 H :    0.102889
  15 H :    0.108137
  16 H :    0.079710
Sum of atomic charges:   -0.0000000

LOEWDIN ATOMIC CHARGES
----------------------
   0 C :    0.050623
   1 O :   -0.132498
   2 C :    0.022596
   3 C :   -0.057656
   4 C :   -0.020767
   5 N :   -0.003775
   6 N :   -0.171165
   7 H :    0.024887
   8 H :    0.006859
   9 H :    0.006342
  10 H :    0.003107
  11 H :    0.034289
  12 H :    0.031288
  13 H :    0.031446
  14 H :    0.064163
  15 H :    0.069607
  16 H :    0.040654

  Mayer bond orders larger than 0.1
B(  0-C ,  1-O ) :   0.9985 B(  0-C ,  7-H ) :   0.9775 B(  0-C ,  8-H ) :   0.9550
B(  0-C ,  9-H ) :   0.9542 B(  1-O ,  2-C ) :   1.0421 B(  2-C ,  3-C ) :   1.0870
B(  2-C ,  4-C ) :   0.9157 B(  2-C , 10-H ) :   0.8880 B(  3-C , 11-H ) :   0.9459
B(  3-C , 12-H ) :   0.9597 B(  3-C , 13-H ) :   0.9482 B(  4-C ,  5-N ) :   1.2051
B(  4-C ,  6-N ) :   1.9951 B(  5-N , 14-H ) :   0.9438 B(  5-N , 15-H ) :   0.9377
B(  6-N , 16-H ) :   0.9110

FINAL SINGLE POINT ENERGY      -342.479609288595

DIPOLE MOMENT
-------------
                                X             Y             Z
Electronic contribution:      2.63113      -0.38429       0.72424
Nuclear contribution   :     -3.20507       1.18364      -1.37230
                        -----------------------------------------
Total Dipole Moment    :     -0.57394       0.79935      -0.64805
                        -----------------------------------------
Magnitude (a.u.)       :      1.17828
Magnitude (Debye)      :      2.99495

                             ****ORCA TERMINATED NORMALLY****
TOTAL RUN TIME: 0 days 0 hours 0 minutes 7 seconds 780 msec
