                         Program Version 3.0.3 - RELEASE   -
|  1> ! RI PBE def2-SVP def2-SVP/J NBO PAL2
|  2> % maxcore 2000
|  3> % output
|  4>     # printlevel mini
|  5>     print[ P_Basis ] 0
|  6>     print[ P_SCFInfo ] 1
|  7>     print[ P_SCFIterInfo ] 1
|  8>     print[ P_OrbEn ] 0
|  9>     print[ P_Cartesian ] 0
| 10> end
| 11> *xyz 0 1
| 12>  C        3.0700900000     2.6541100000    -0.2164430000
| 13>  O        2.8010110000     1.2774230000    -0.1427950000
| 14>  C        3.2376380000     0.5715200000    -1.2832610000
| 15>  C        4.7318500000     0.4775700000    -1.3846760000
| 16>  C        5.4956550000    -0.0988320000    -0.2344860000
| 17>  N        5.2690670000     0.9006940000    -2.4616520000
| 18>  N        6.6242770000     0.8466170000    -2.5699250000
| 19>  H        2.6756050000     3.1085020000     0.6927760000
| 20>  H        2.5791280000     3.1094200000    -1.0871080000
| 21>  H        4.1451040000     2.8624650000    -0.2835460000
| 22>  H        2.8554990000     1.0263730000    -2.2059420000
| 23>  H        2.8055490000    -0.4300090000    -1.1830720000
| 24>  H        4.8378960000    -0.2749110000     0.6157340000
| 25>  H        6.2951160000     0.5791650000     0.0820390000
| 26>  H        5.9670710000    -1.0530430000    -0.5029300000
| 27>  H        6.8979500000     0.8942110000    -3.5382660000
| 28>  H        7.0803840000     0.0826350000    -2.0824280000
| 29> *
| 30>
| 31>                          ****END OF INPUT****
 Total Charge           Charge          ....    0
 Multiplicity           Mult            ....    1
 Number of Electrons    NEL             ....   56
 Basis Dimension        Dim             ....  148

MULLIKEN ATOMIC CHARGES
-----------------------
   0 C :    0.146277
   1 O :   -0.353664
   2 C :    0.297762
   3 C :   -0.315435
   4 C :    0.034815
   5 N :   -0.101064
   6 N :   -0.055673
   7 H :    0.027311
   8 H :    0.003742
   9 H :    0.016459
  10 H :   -0.012099
  11 H :    0.007957
  12 H :    0.028698
  13 H :    0.042409
  14 H :    0.031186
  15 H :    0.114955
  16 H :    0.086361
Sum of atomic charges:   -0.0000000

LOEWDIN ATOMIC CHARGES
----------------------
   0 C :    0.049499
   1 O :   -0.151559
   2 C :    0.053859
   3 C :   -0.093103
   4 C :   -0.084713
   5 N :   -0.055346
   6 N :    0.003855
   7 H :    0.021047
   8 H :    0.006889
   9 H :    0.005882
  10 H :    0.009789
  11 H :    0.023554
  12 H :    0.038741
  13 H :    0.037034
  14 H :    0.034106
  15 H :    0.059764
  16 H :    0.040704

  Mayer bond orders larger than 0.1
B(  0-C ,  1-O ) :   1.0146 B(  0-C ,  7-H ) :   0.9767 B(  0-C ,  8-H ) :   0.9546
B(  0-C ,  9-H ) :   0.9542 B(  1-O ,  2-C ) :   1.0243 B(  2-C ,  3-C ) :   1.0447
B(  2-C , 10-H ) :   0.9114 B(  2-C , 11-H ) :   0.9176 B(  3-C ,  4-C ) :   1.0669
B(  3-C ,  5-N ) :   1.8951 B(  3-C ,  6-N ) :   0.1047 B(  4-C , 12-H ) :   0.9359
B(  4-C , 13-H ) :   0.9395 B(  4-C , 14-H ) :   0.9331 B(  5-N ,  6-N ) :   1.1107
B(  6-N , 15-H ) :   0.9651 B(  6-N , 16-H ) :   0.9372

FINAL SINGLE POINT ENERGY      -342.439789064433

DIPOLE MOMENT
-------------
                                X             Y             Z
Electronic contribution:     -0.59703      -0.64760      -2.25704
Nuclear contribution   :      1.34520       0.27712       2.09797
                        -----------------------------------------
Total Dipole Moment    :      0.74817      -0.37048      -0.15907
                        -----------------------------------------
Magnitude (a.u.)       :      0.84990
Magnitude (Debye)      :      2.16026

                             ****ORCA TERMINATED NORMALLY****
TOTAL RUN TIME: 0 days 0 hours 0 minutes 7 seconds 918 msec
