                         Program Version 3.0.3 - RELEASE   -
|  1> ! RI PBE def2-SVP def2-SVP/J NBO PAL2
|  2> % maxcore 2000
|  3> % output
|  4>     # printlevel mini
|  5>     print[ P_Basis ] 0
|  6>     print[ P_SCFInfo ] 1
|  7>     print[ P_SCFIterInfo ] 1
|  8>     print[ P_OrbEn ] 0
|  9>     print[ P_Cartesian ] 0
| 10> end
| 11> *xyz 0 1
| 12>  C        2.4986780000     2.4634730000    -2.5870330000
| 13>  O        3.6624680000     2.0918570000    -1.9040430000
| 14>  C        3.4614200000     1.9858310000    -0.5168910000
| 15>  C        4.7751890000     1.6198380000     0.1465510000
| 16>  C        5.8202540000     2.6712880000    -0.0066440000
| 17>  N        6.3185990000     3.2425380000     1.0100730000
| 18>  N        7.2112160000     4.2523430000     0.8143690000
| 19>  H        2.7407770000     2.5173790000    -3.6488490000
| 20>  H        2.1313890000     3.4448120000    -2.2554060000
| 21>  H        1.6941830000     1.7281330000    -2.4433110000
| 22>  H        2.7048500000     1.2147570000    -0.3029380000
| 23>  H        3.0860070000     2.9390770000    -0.1138310000
| 24>  H        5.1250300000     0.6785530000    -0.2935780000
| 25>  H        4.6064620000     1.4512600000     1.2124540000
| 26>  H        6.1262870000     2.9435790000    -1.0243030000
| 27>  H        7.8337030000     4.3281210000     1.6030700000
| 28>  H        7.7159770000     4.2142410000    -0.0670700000
| 29> *
| 30>
| 31>                          ****END OF INPUT****
 Total Charge           Charge          ....    0
 Multiplicity           Mult            ....    1
 Number of Electrons    NEL             ....   56
 Basis Dimension        Dim             ....  148

MULLIKEN ATOMIC CHARGES
-----------------------
   0 C :    0.145557
   1 O :   -0.351094
   2 C :    0.143927
   3 C :    0.084152
   4 C :   -0.099145
   5 N :   -0.118411
   6 N :   -0.054324
   7 H :    0.033490
   8 H :    0.001321
   9 H :    0.006559
  10 H :   -0.001809
  11 H :   -0.000927
  12 H :    0.019692
  13 H :    0.012533
  14 H :   -0.015903
  15 H :    0.113515
  16 H :    0.080866
Sum of atomic charges:    0.0000000

LOEWDIN ATOMIC CHARGES
----------------------
   0 C :    0.048741
   1 O :   -0.153070
   2 C :    0.062416
   3 C :   -0.058922
   4 C :   -0.050848
   5 N :   -0.048763
   6 N :   -0.001719
   7 H :    0.022733
   8 H :    0.005002
   9 H :    0.004904
  10 H :    0.003984
  11 H :    0.004726
  12 H :    0.034292
  13 H :    0.038219
  14 H :   -0.007534
  15 H :    0.057810
  16 H :    0.038028

  Mayer bond orders larger than 0.1
B(  0-C ,  1-O ) :   1.0222 B(  0-C ,  7-H ) :   0.9763 B(  0-C ,  8-H ) :   0.9547
B(  0-C ,  9-H ) :   0.9563 B(  1-O ,  2-C ) :   1.0202 B(  2-C ,  3-C ) :   1.0730
B(  2-C , 10-H ) :   0.9271 B(  2-C , 11-H ) :   0.9228 B(  3-C ,  4-C ) :   1.0541
B(  3-C , 12-H ) :   0.9112 B(  3-C , 13-H ) :   0.9108 B(  4-C ,  5-N ) :   1.8932
B(  4-C ,  6-N ) :   0.1257 B(  4-C , 14-H ) :   0.9366 B(  5-N ,  6-N ) :   1.1023
B(  6-N , 15-H ) :   0.9645 B(  6-N , 16-H ) :   0.9428

FINAL SINGLE POINT ENERGY      -342.434236648907

DIPOLE MOMENT
-------------
                                X             Y             Z
Electronic contribution:      4.20991       0.85228       2.22369
Nuclear contribution   :     -4.04363      -0.82737      -2.48644
                        -----------------------------------------
Total Dipole Moment    :      0.16629       0.02491      -0.26275
                        -----------------------------------------
Magnitude (a.u.)       :      0.31194
Magnitude (Debye)      :      0.79290

                             ****ORCA TERMINATED NORMALLY****
TOTAL RUN TIME: 0 days 0 hours 0 minutes 7 seconds 457 msec
