                         Program Version 3.0.3 - RELEASE   -
|  1> ! RI PBE def2-SVP def2-SVP/J NBO PAL2
|  2> % maxcore 2000
|  3> % output
|  4>     # printlevel mini
|  5>     print[ P_Basis ] 0
|  6>     print[ P_SCFInfo ] 1
|  7>     print[ P_SCFIterInfo ] 1
|  8>     print[ P_OrbEn ] 0
|  9>     print[ P_Cartesian ] 0
| 10> end
| 11> *xyz 0 1
| 12>  C        1.3395600000     1.6590100000    -0.4185880000
| 13>  O        2.6643060000     2.1204480000    -0.4424940000
| 14>  C        3.4553910000     1.4406300000    -1.3898780000
| 15>  C        4.8622810000     2.0104680000    -1.3886250000
| 16>  C        4.9790010000     3.3906400000    -1.9941870000
| 17>  N        4.2877320000     4.3584480000    -1.3238340000
| 18>  N        5.6773790000     3.6940540000    -3.0179540000
| 19>  H        0.8051210000     2.2279870000     0.3421110000
| 20>  H        1.2944830000     0.5921960000    -0.1618570000
| 21>  H        0.8458070000     1.8046290000    -1.3886600000
| 22>  H        3.0061110000     1.5302830000    -2.3904970000
| 23>  H        3.4919000000     0.3704130000    -1.1382140000
| 24>  H        5.5085060000     1.3318930000    -1.9484200000
| 25>  H        5.2233910000     2.0334930000    -0.3551450000
| 26>  H        3.5067660000     4.0634860000    -0.7609080000
| 27>  H        4.2166690000     5.2456450000    -1.7938030000
| 28>  H        6.1723960000     2.8794790000    -3.3656380000
| 29> *
| 30>
| 31>                          ****END OF INPUT****
 Total Charge           Charge          ....    0
 Multiplicity           Mult            ....    1
 Number of Electrons    NEL             ....   56
 Basis Dimension        Dim             ....  148

MULLIKEN ATOMIC CHARGES
-----------------------
   0 C :    0.144615
   1 O :   -0.358961
   2 C :    0.153808
   3 C :    0.071580
   4 C :   -0.228587
   5 N :   -0.048422
   6 N :   -0.121359
   7 H :    0.037419
   8 H :    0.012093
   9 H :    0.013491
  10 H :    0.005212
  11 H :    0.006141
  12 H :   -0.000853
  13 H :    0.037657
  14 H :    0.100808
  15 H :    0.104767
  16 H :    0.070589
Sum of atomic charges:   -0.0000000

LOEWDIN ATOMIC CHARGES
----------------------
   0 C :    0.052060
   1 O :   -0.147912
   2 C :    0.063787
   3 C :   -0.066608
   4 C :   -0.004594
   5 N :   -0.002345
   6 N :   -0.190328
   7 H :    0.025118
   8 H :    0.009188
   9 H :    0.008801
  10 H :    0.008967
  11 H :    0.009797
  12 H :    0.036077
  13 H :    0.040580
  14 H :    0.053109
  15 H :    0.066866
  16 H :    0.037436

  Mayer bond orders larger than 0.1
B(  0-C ,  1-O ) :   1.0024 B(  0-C ,  7-H ) :   0.9760 B(  0-C ,  8-H ) :   0.9580
B(  0-C ,  9-H ) :   0.9580 B(  1-O ,  2-C ) :   0.9938 B(  2-C ,  3-C ) :   1.0728
B(  2-C , 10-H ) :   0.9252 B(  2-C , 11-H ) :   0.9267 B(  3-C ,  4-C ) :   1.0058
B(  3-C , 12-H ) :   0.8998 B(  3-C , 13-H ) :   0.9121 B(  4-C ,  5-N ) :   1.2582
B(  4-C ,  6-N ) :   1.9396 B(  5-N , 14-H ) :   0.9227 B(  5-N , 15-H ) :   0.9419
B(  6-N , 16-H ) :   0.9248

FINAL SINGLE POINT ENERGY      -342.479012430621

DIPOLE MOMENT
-------------
                                X             Y             Z
Electronic contribution:      3.07316       3.29081      -0.56216
Nuclear contribution   :     -4.07901      -4.17783       1.00990
                        -----------------------------------------
Total Dipole Moment    :     -1.00585      -0.88702       0.44774
                        -----------------------------------------
Magnitude (a.u.)       :      1.41387
Magnitude (Debye)      :      3.59376

                             ****ORCA TERMINATED NORMALLY****
TOTAL RUN TIME: 0 days 0 hours 0 minutes 7 seconds 867 msec
