                         Program Version 3.0.3 - RELEASE   -
|  1> ! RI PBE def2-SVP def2-SVP/J NBO PAL2
|  2> % maxcore 2000
|  3> % output
|  4>     # printlevel mini
|  5>     print[ P_Basis ] 0
|  6>     print[ P_SCFInfo ] 1
|  7>     print[ P_SCFIterInfo ] 1
|  8>     print[ P_OrbEn ] 0
|  9>     print[ P_Cartesian ] 0
| 10> end
| 11> *xyz 0 1
| 12>  C        3.6401560000     0.8861500000     0.7061230000
| 13>  O        2.7207650000     0.3284690000    -0.2081970000
| 14>  C        3.2058300000    -0.5317870000    -1.1092380000
| 15>  C        4.4734310000    -0.9405180000    -1.2597660000
| 16>  C        4.8245540000    -1.8801740000    -2.2917740000
| 17>  N        6.0306270000    -2.2661120000    -2.4314800000
| 18>  O        6.1506560000    -3.1663720000    -3.4782030000
| 19>  H        3.0682460000     1.5512120000     1.3499940000
| 20>  H        4.4148970000     1.4556770000     0.1828780000
| 21>  H        4.1132600000     0.1051530000     1.3099300000
| 22>  H        2.4141000000    -0.8954400000    -1.7568990000
| 23>  H        5.2748350000    -0.5878090000    -0.6226280000
| 24>  H        4.0468960000    -2.2619520000    -2.9574230000
| 25>  H        7.0886380000    -3.3743970000    -3.4764580000
| 26> *
| 27>
| 28>                          ****END OF INPUT****
 Total Charge           Charge          ....    0
 Multiplicity           Mult            ....    1
 Number of Electrons    NEL             ....   54
 Basis Dimension        Dim             ....  133

MULLIKEN ATOMIC CHARGES
-----------------------
   0 C :    0.128061
   1 O :   -0.252153
   2 C :    0.131031
   3 C :   -0.044054
   4 C :   -0.001928
   5 N :   -0.066908
   6 O :   -0.179074
   7 H :    0.044354
   8 H :    0.035887
   9 H :    0.036142
  10 H :    0.013234
  11 H :   -0.000627
  12 H :   -0.013391
  13 H :    0.169427
Sum of atomic charges:   -0.0000000

LOEWDIN ATOMIC CHARGES
----------------------
   0 C :    0.063955
   1 O :   -0.052271
   2 C :    0.036064
   3 C :   -0.121034
   4 C :   -0.038886
   5 N :   -0.034992
   6 O :   -0.056851
   7 H :    0.029689
   8 H :    0.019735
   9 H :    0.020115
  10 H :    0.024434
  11 H :    0.031523
  12 H :    0.006150
  13 H :    0.072369

  Mayer bond orders larger than 0.1
B(  0-C ,  1-O ) :   0.9757 B(  0-C ,  7-H ) :   0.9732 B(  0-C ,  8-H ) :   0.9606
B(  0-C ,  9-H ) :   0.9607 B(  1-O ,  2-C ) :   1.1841 B(  2-C ,  3-C ) :   1.6238
B(  2-C , 10-H ) :   0.9697 B(  3-C ,  4-C ) :   1.1174 B(  3-C , 11-H ) :   0.9563
B(  4-C ,  5-N ) :   1.8016 B(  4-C , 12-H ) :   0.9484 B(  5-N ,  6-O ) :   0.9879
B(  6-O , 13-H ) :   0.9765

FINAL SINGLE POINT ENERGY      -361.057516581435

DIPOLE MOMENT
-------------
                                X             Y             Z
Electronic contribution:      0.84123      -3.08369      -3.46708
Nuclear contribution   :     -0.74480       3.42168       3.90084
                        -----------------------------------------
Total Dipole Moment    :      0.09643       0.33799       0.43376
                        -----------------------------------------
Magnitude (a.u.)       :      0.55828
Magnitude (Debye)      :      1.41904

                             ****ORCA TERMINATED NORMALLY****
TOTAL RUN TIME: 0 days 0 hours 0 minutes 6 seconds 674 msec
