                         Program Version 3.0.3 - RELEASE   -
|  1> ! RI PBE def2-SVP def2-SVP/J NBO PAL2
|  2> % maxcore 2000
|  3> % output
|  4>     # printlevel mini
|  5>     print[ P_Basis ] 0
|  6>     print[ P_SCFInfo ] 1
|  7>     print[ P_SCFIterInfo ] 1
|  8>     print[ P_OrbEn ] 0
|  9>     print[ P_Cartesian ] 0
| 10> end
| 11> *xyz 0 1
| 12>  C        1.1870430000    -0.0048290000    -0.0596760000
| 13>  O        2.5986990000    -0.0800010000     0.0257520000
| 14>  C        3.2433720000    -0.1144200000    -1.1417020000
| 15>  C        4.5719080000    -0.1862340000    -1.2351610000
| 16>  C        5.1829400000    -0.2185230000    -2.5743530000
| 17>  N        6.5420870000    -0.2923790000    -2.5764720000
| 18>  O        4.5456060000    -0.1837740000    -3.6129080000
| 19>  H        0.8128580000     0.0161930000     0.9620930000
| 20>  H        0.7792560000    -0.8783700000    -0.5767650000
| 21>  H        0.8743760000     0.9060330000    -0.5786340000
| 22>  H        2.6423510000    -0.0814580000    -2.0492050000
| 23>  H        5.1855830000    -0.2199140000    -0.3420960000
| 24>  H        7.0789550000    -0.3220740000    -1.7305070000
| 25>  H        7.0136660000    -0.3177610000    -3.4628560000
| 26> *
| 27>
| 28>                          ****END OF INPUT****
 Total Charge           Charge          ....    0
 Multiplicity           Mult            ....    1
 Number of Electrons    NEL             ....   54
 Basis Dimension        Dim             ....  133

MULLIKEN ATOMIC CHARGES
-----------------------
   0 C :    0.139690
   1 O :   -0.249626
   2 C :    0.146321
   3 C :   -0.115765
   4 C :    0.036619
   5 N :   -0.054137
   6 O :   -0.225439
   7 H :    0.042304
   8 H :    0.035289
   9 H :    0.034731
  10 H :    0.011151
  11 H :   -0.013768
  12 H :    0.101970
  13 H :    0.110659
Sum of atomic charges:    0.0000000

LOEWDIN ATOMIC CHARGES
----------------------
   0 C :    0.065249
   1 O :   -0.055195
   2 C :    0.070202
   3 C :   -0.143262
   4 C :    0.022167
   5 N :    0.007415
   6 O :   -0.218053
   7 H :    0.029761
   8 H :    0.020245
   9 H :    0.020179
  10 H :    0.020204
  11 H :    0.023451
  12 H :    0.067377
  13 H :    0.070259

  Mayer bond orders larger than 0.1
B(  0-C ,  1-O ) :   0.9613 B(  0-C ,  7-H ) :   0.9773 B(  0-C ,  8-H ) :   0.9660
B(  0-C ,  9-H ) :   0.9659 B(  1-O ,  2-C ) :   1.1865 B(  2-C ,  3-C ) :   1.7510
B(  2-C , 10-H ) :   0.9308 B(  3-C ,  4-C ) :   0.9664 B(  3-C , 11-H ) :   0.9438
B(  4-C ,  5-N ) :   1.2390 B(  4-C ,  6-O ) :   2.0760 B(  5-N , 12-H ) :   0.9415
B(  5-N , 13-H ) :   0.9382

FINAL SINGLE POINT ENERGY      -361.136389734616

DIPOLE MOMENT
-------------
                                X             Y             Z
Electronic contribution:      3.21421      -0.17084      -2.23183
Nuclear contribution   :     -3.15826       0.16570       3.18223
                        -----------------------------------------
Total Dipole Moment    :      0.05595      -0.00514       0.95040
                        -----------------------------------------
Magnitude (a.u.)       :      0.95206
Magnitude (Debye)      :      2.41993

                             ****ORCA TERMINATED NORMALLY****
TOTAL RUN TIME: 0 days 0 hours 0 minutes 5 seconds 792 msec
