                         Program Version 3.0.3 - RELEASE   -
|  1> ! RI PBE def2-SVP def2-SVP/J NBO PAL2
|  2> % maxcore 2000
|  3> % output
|  4>     # printlevel mini
|  5>     print[ P_Basis ] 0
|  6>     print[ P_SCFInfo ] 1
|  7>     print[ P_SCFIterInfo ] 1
|  8>     print[ P_OrbEn ] 0
|  9>     print[ P_Cartesian ] 0
| 10> end
| 11> *xyz 0 1
| 12>  C        1.4117780000     0.6235940000    -0.3781720000
| 13>  O        2.7840840000     0.6960760000    -0.0816810000
| 14>  C        3.1569060000     1.5740140000     0.8806960000
| 15>  C        2.3446800000     2.3757770000     1.5728150000
| 16>  C        4.6126570000     1.5068550000     1.0472710000
| 17>  N        5.2170640000     2.2322340000     1.8930430000
| 18>  O        6.5737980000     2.0068410000     1.8804110000
| 19>  H        1.3048980000    -0.1234260000    -1.1627210000
| 20>  H        1.0339750000     1.5878580000    -0.7353620000
| 21>  H        0.8339300000     0.3180540000     0.5009490000
| 22>  H        1.2756360000     2.3991230000     1.4238350000
| 23>  H        2.7770100000     3.0305950000     2.3154200000
| 24>  H        5.1531850000     0.8051730000     0.4116540000
| 25>  H        6.9031000000     2.6084310000     2.5542630000
| 26> *
| 27>
| 28>                          ****END OF INPUT****
 Total Charge           Charge          ....    0
 Multiplicity           Mult            ....    1
 Number of Electrons    NEL             ....   54
 Basis Dimension        Dim             ....  133

MULLIKEN ATOMIC CHARGES
-----------------------
   0 C :    0.126719
   1 O :   -0.276195
   2 C :    0.108632
   3 C :   -0.108925
   4 C :    0.018098
   5 N :   -0.029039
   6 O :   -0.160352
   7 H :    0.041558
   8 H :    0.032725
   9 H :    0.033699
  10 H :    0.017783
  11 H :    0.024243
  12 H :   -0.002860
  13 H :    0.173913
Sum of atomic charges:   -0.0000000

LOEWDIN ATOMIC CHARGES
----------------------
   0 C :    0.060464
   1 O :   -0.069298
   2 C :    0.009919
   3 C :   -0.128862
   4 C :   -0.039910
   5 N :   -0.003399
   6 O :   -0.037671
   7 H :    0.028435
   8 H :    0.017557
   9 H :    0.017721
  10 H :    0.023001
  11 H :    0.032044
  12 H :    0.013171
  13 H :    0.076827

  Mayer bond orders larger than 0.1
B(  0-C ,  1-O ) :   0.9846 B(  0-C ,  7-H ) :   0.9731 B(  0-C ,  8-H ) :   0.9582
B(  0-C ,  9-H ) :   0.9582 B(  1-O ,  2-C ) :   1.1303 B(  2-C ,  3-C ) :   1.8247
B(  2-C ,  4-C ) :   1.0335 B(  3-C , 10-H ) :   0.9335 B(  3-C , 11-H ) :   0.9081
B(  4-C ,  5-N ) :   1.8672 B(  4-C ,  6-O ) :   0.1161 B(  4-C , 12-H ) :   0.9375
B(  5-N ,  6-O ) :   1.0074 B(  6-O , 13-H ) :   0.9741

FINAL SINGLE POINT ENERGY      -361.051140131442

DIPOLE MOMENT
-------------
                                X             Y             Z
Electronic contribution:      6.33747       0.32383       1.35845
Nuclear contribution   :     -6.60139      -0.31293      -1.39245
                        -----------------------------------------
Total Dipole Moment    :     -0.26392       0.01091      -0.03399
                        -----------------------------------------
Magnitude (a.u.)       :      0.26633
Magnitude (Debye)      :      0.67695

                             ****ORCA TERMINATED NORMALLY****
TOTAL RUN TIME: 0 days 0 hours 0 minutes 5 seconds 863 msec
