                         Program Version 3.0.3 - RELEASE   -
|  1> ! RI PBE def2-SVP def2-SVP/J NBO PAL2
|  2> % maxcore 2000
|  3> % output
|  4>     # printlevel mini
|  5>     print[ P_Basis ] 0
|  6>     print[ P_SCFInfo ] 1
|  7>     print[ P_SCFIterInfo ] 1
|  8>     print[ P_OrbEn ] 0
|  9>     print[ P_Cartesian ] 0
| 10> end
| 11> *xyz 0 1
| 12>  C        2.2112290000    -0.9429380000     1.1650930000
| 13>  O        3.4588490000    -1.1539890000     0.5475900000
| 14>  C        3.4398950000    -1.6373930000    -0.7175870000
| 15>  C        2.3665900000    -1.9357620000    -1.4432160000
| 16>  C        4.8193230000    -1.8286620000    -1.2903420000
| 17>  N        5.8239040000    -1.4894400000    -0.4542900000
| 18>  O        4.9939590000    -2.2536300000    -2.4128440000
| 19>  H        2.4173330000    -0.5580080000     2.1622650000
| 20>  H        1.6494390000    -1.8797710000     1.2420140000
| 21>  H        1.6163400000    -0.2133850000     0.6055940000
| 22>  H        1.3541800000    -1.8190650000    -1.0848010000
| 23>  H        2.5323000000    -2.3137280000    -2.4418390000
| 24>  H        5.6321880000    -1.1414950000     0.4670350000
| 25>  H        6.7686830000    -1.5941250000    -0.7778710000
| 26> *
| 27>
| 28>                          ****END OF INPUT****
 Total Charge           Charge          ....    0
 Multiplicity           Mult            ....    1
 Number of Electrons    NEL             ....   54
 Basis Dimension        Dim             ....  133

MULLIKEN ATOMIC CHARGES
-----------------------
   0 C :    0.136586
   1 O :   -0.292566
   2 C :    0.054924
   3 C :   -0.082446
   4 C :    0.004777
   5 N :   -0.033565
   6 O :   -0.188933
   7 H :    0.038750
   8 H :    0.036131
   9 H :    0.035803
  10 H :    0.015635
  11 H :    0.042403
  12 H :    0.117304
  13 H :    0.115196
Sum of atomic charges:   -0.0000000

LOEWDIN ATOMIC CHARGES
----------------------
   0 C :    0.064775
   1 O :   -0.078279
   2 C :   -0.013247
   3 C :   -0.099100
   4 C :    0.016258
   5 N :    0.023436
   6 O :   -0.187111
   7 H :    0.027377
   8 H :    0.019460
   9 H :    0.019304
  10 H :    0.023243
  11 H :    0.041648
  12 H :    0.068082
  13 H :    0.074155

  Mayer bond orders larger than 0.1
B(  0-C ,  1-O ) :   0.9739 B(  0-C ,  7-H ) :   0.9727 B(  0-C ,  8-H ) :   0.9605
B(  0-C ,  9-H ) :   0.9605 B(  1-O ,  2-C ) :   1.1293 B(  2-C ,  3-C ) :   1.8717
B(  2-C ,  4-C ) :   0.8761 B(  3-C , 10-H ) :   0.9357 B(  3-C , 11-H ) :   0.9008
B(  4-C ,  5-N ) :   1.2967 B(  4-C ,  6-O ) :   2.1371 B(  5-N ,  6-O ) :   0.1026
B(  5-N , 12-H ) :   0.9219 B(  5-N , 13-H ) :   0.9318

FINAL SINGLE POINT ENERGY      -361.137463504934

DIPOLE MOMENT
-------------
                                X             Y             Z
Electronic contribution:      4.66663      -0.97801      -2.80149
Nuclear contribution   :     -4.90367       1.53591       4.27761
                        -----------------------------------------
Total Dipole Moment    :     -0.23705       0.55790       1.47612
                        -----------------------------------------
Magnitude (a.u.)       :      1.59574
Magnitude (Debye)      :      4.05605

                             ****ORCA TERMINATED NORMALLY****
TOTAL RUN TIME: 0 days 0 hours 0 minutes 6 seconds 549 msec
