                         Program Version 3.0.3 - RELEASE   -
|  1> ! RI PBE def2-SVP def2-SVP/J NBO PAL2
|  2> % maxcore 2000
|  3> % output
|  4>     # printlevel mini
|  5>     print[ P_Basis ] 0
|  6>     print[ P_SCFInfo ] 1
|  7>     print[ P_SCFIterInfo ] 1
|  8>     print[ P_OrbEn ] 0
|  9>     print[ P_Cartesian ] 0
| 10> end
| 11> *xyz 0 1
| 12>  C        1.1991060000     0.3664490000    -1.8761140000
| 13>  O        1.2263690000    -1.0394330000    -1.7104100000
| 14>  C        2.4098020000    -1.5891820000    -1.3978630000
| 15>  C        2.3919490000    -3.0383970000    -1.2366740000
| 16>  C        1.2978760000    -3.7783010000    -1.3836300000
| 17>  N        3.4268890000    -0.8255350000    -1.2697590000
| 18>  O        4.5820520000    -1.5273050000    -0.9456870000
| 19>  H        0.1682140000     0.6148310000    -2.1222080000
| 20>  H        1.8682400000     0.6773270000    -2.6818880000
| 21>  H        1.5038800000     0.8734990000    -0.9575990000
| 22>  H        3.3446210000    -3.4851550000    -0.9845170000
| 23>  H        0.3434620000    -3.3326820000    -1.6360230000
| 24>  H        1.3338650000    -4.8532260000    -1.2536740000
| 25>  H        5.2359660000    -0.8269900000    -0.8871440000
| 26> *
| 27>
| 28>                          ****END OF INPUT****
 Total Charge           Charge          ....    0
 Multiplicity           Mult            ....    1
 Number of Electrons    NEL             ....   54
 Basis Dimension        Dim             ....  133

MULLIKEN ATOMIC CHARGES
-----------------------
   0 C :    0.159597
   1 O :   -0.271656
   2 C :    0.067588
   3 C :   -0.018677
   4 C :    0.005383
   5 N :   -0.094073
   6 O :   -0.179217
   7 H :    0.031874
   8 H :    0.024939
   9 H :    0.026771
  10 H :    0.009070
  11 H :    0.033752
  12 H :    0.030898
  13 H :    0.173749
Sum of atomic charges:   -0.0000000

LOEWDIN ATOMIC CHARGES
----------------------
   0 C :    0.062805
   1 O :   -0.063020
   2 C :   -0.018766
   3 C :   -0.053534
   4 C :   -0.021129
   5 N :   -0.073788
   6 O :   -0.055005
   7 H :    0.022878
   8 H :    0.017325
   9 H :    0.017737
  10 H :    0.033836
  11 H :    0.027466
  12 H :    0.028302
  13 H :    0.074891

  Mayer bond orders larger than 0.1
B(  0-C ,  1-O ) :   0.9603 B(  0-C ,  7-H ) :   0.9725 B(  0-C ,  8-H ) :   0.9650
B(  0-C ,  9-H ) :   0.9646 B(  1-O ,  2-C ) :   1.1938 B(  2-C ,  3-C ) :   1.0880
B(  2-C ,  5-N ) :   1.7017 B(  3-C ,  4-C ) :   1.9172 B(  3-C , 10-H ) :   0.9430
B(  4-C , 11-H ) :   0.9400 B(  4-C , 12-H ) :   0.9365 B(  5-N ,  6-O ) :   0.9873
B(  6-O , 13-H ) :   0.9759

FINAL SINGLE POINT ENERGY      -361.057568622353

DIPOLE MOMENT
-------------
                                X             Y             Z
Electronic contribution:      2.88723      -0.36472       0.65381
Nuclear contribution   :     -2.78588       0.68636      -0.66657
                        -----------------------------------------
Total Dipole Moment    :      0.10135       0.32164      -0.01276
                        -----------------------------------------
Magnitude (a.u.)       :      0.33747
Magnitude (Debye)      :      0.85777

                             ****ORCA TERMINATED NORMALLY****
TOTAL RUN TIME: 0 days 0 hours 0 minutes 6 seconds 438 msec
