                         Program Version 3.0.3 - RELEASE   -
|  1> ! RI PBE def2-SVP def2-SVP/J NBO PAL2
|  2> % maxcore 2000
|  3> % output
|  4>     # printlevel mini
|  5>     print[ P_Basis ] 0
|  6>     print[ P_SCFInfo ] 1
|  7>     print[ P_SCFIterInfo ] 1
|  8>     print[ P_OrbEn ] 0
|  9>     print[ P_Cartesian ] 0
| 10> end
| 11> *xyz 0 1
| 12>  C        3.0310710000     0.6307240000    -0.5976100000
| 13>  O        2.7221020000    -0.6425000000    -0.0891290000
| 14>  C        3.0879260000    -0.8165770000     1.2650320000
| 15>  C        2.4116230000    -2.0818880000     1.7496820000
| 16>  C        4.5767850000    -0.9126680000     1.4014760000
| 17>  N        5.1986670000    -0.0786890000     2.1208650000
| 18>  O        6.5579230000    -0.3253380000     2.1476300000
| 19>  H        2.6867390000     0.6538330000    -1.6315790000
| 20>  H        4.1080860000     0.8354140000    -0.5756310000
| 21>  H        2.5183680000     1.4202900000    -0.0320200000
| 22>  H        2.7511730000     0.0444760000     1.8598500000
| 23>  H        2.7495920000    -2.9411780000     1.1660400000
| 24>  H        1.3304620000    -1.9922530000     1.6330830000
| 25>  H        2.6418070000    -2.2603720000     2.8014600000
| 26>  H        5.1026400000    -1.7090730000     0.8692510000
| 27>  H        6.8952280000     0.3721110000     2.7168020000
| 28> *
| 29>
| 30>                          ****END OF INPUT****
 Total Charge           Charge          ....    0
 Multiplicity           Mult            ....    1
 Number of Electrons    NEL             ....   56
 Basis Dimension        Dim             ....  143

MULLIKEN ATOMIC CHARGES
-----------------------
   0 C :    0.152005
   1 O :   -0.341731
   2 C :    0.127102
   3 C :    0.010413
   4 C :   -0.041644
   5 N :   -0.040824
   6 O :   -0.173168
   7 H :    0.030369
   8 H :    0.014869
   9 H :    0.004013
  10 H :   -0.006339
  11 H :    0.024928
  12 H :    0.035969
  13 H :    0.029759
  14 H :    0.002880
  15 H :    0.171399
Sum of atomic charges:   -0.0000000

LOEWDIN ATOMIC CHARGES
----------------------
   0 C :    0.050205
   1 O :   -0.143098
   2 C :    0.036625
   3 C :   -0.062742
   4 C :   -0.043056
   5 N :   -0.012336
   6 O :   -0.051840
   7 H :    0.023201
   8 H :    0.005507
   9 H :    0.006836
  10 H :    0.011463
  11 H :    0.029964
  12 H :    0.033704
  13 H :    0.034134
  14 H :    0.007447
  15 H :    0.073986

  Mayer bond orders larger than 0.1
B(  0-C ,  1-O ) :   1.0125 B(  0-C ,  7-H ) :   0.9761 B(  0-C ,  8-H ) :   0.9541
B(  0-C ,  9-H ) :   0.9546 B(  1-O ,  2-C ) :   1.0087 B(  2-C ,  3-C ) :   1.0674
B(  2-C ,  4-C ) :   1.0002 B(  2-C , 10-H ) :   0.9082 B(  3-C , 11-H ) :   0.9559
B(  3-C , 12-H ) :   0.9527 B(  3-C , 13-H ) :   0.9565 B(  4-C ,  5-N ) :   1.8723
B(  4-C ,  6-O ) :   0.1163 B(  4-C , 14-H ) :   0.9366 B(  5-N ,  6-O ) :   0.9945
B(  6-O , 15-H ) :   0.9751

FINAL SINGLE POINT ENERGY      -362.260714020578

DIPOLE MOMENT
-------------
                                X             Y             Z
Electronic contribution:      4.82626       0.60220       1.57630
Nuclear contribution   :     -4.64330      -0.27995      -1.34647
                        -----------------------------------------
Total Dipole Moment    :      0.18296       0.32225       0.22983
                        -----------------------------------------
Magnitude (a.u.)       :      0.43605
Magnitude (Debye)      :      1.10835

                             ****ORCA TERMINATED NORMALLY****
TOTAL RUN TIME: 0 days 0 hours 0 minutes 7 seconds 422 msec
