                         Program Version 3.0.3 - RELEASE   -
|  1> ! RI PBE def2-SVP def2-SVP/J NBO PAL2
|  2> % maxcore 2000
|  3> % output
|  4>     # printlevel mini
|  5>     print[ P_Basis ] 0
|  6>     print[ P_SCFInfo ] 1
|  7>     print[ P_SCFIterInfo ] 1
|  8>     print[ P_OrbEn ] 0
|  9>     print[ P_Cartesian ] 0
| 10> end
| 11> *xyz 0 1
| 12>  C        3.4606850000     0.6321410000    -1.0216510000
| 13>  O        3.2493450000    -0.7223230000    -0.7011160000
| 14>  C        3.2795090000    -0.9793860000     0.6861690000
| 15>  C        2.5000430000    -2.2504110000     0.9567570000
| 16>  C        4.7012250000    -1.1270120000     1.2328860000
| 17>  N        5.6348650000    -1.4061590000     0.2992720000
| 18>  O        4.9320940000    -1.0298920000     2.4197930000
| 19>  H        3.4216430000     0.7179980000    -2.1077720000
| 20>  H        4.4365650000     0.9903480000    -0.6701400000
| 21>  H        2.6785630000     1.2666390000    -0.5866950000
| 22>  H        2.8281780000    -0.1447630000     1.2380740000
| 23>  H        2.9227010000    -3.0826540000     0.3894870000
| 24>  H        1.4590360000    -2.1209750000     0.6576250000
| 25>  H        2.5415850000    -2.4918850000     2.0192520000
| 26>  H        5.3656090000    -1.5048110000    -0.6637780000
| 27>  H        6.5816540000    -1.5761430000     0.5890350000
| 28> *
| 29>
| 30>                          ****END OF INPUT****
 Total Charge           Charge          ....    0
 Multiplicity           Mult            ....    1
 Number of Electrons    NEL             ....   56
 Basis Dimension        Dim             ....  143

MULLIKEN ATOMIC CHARGES
-----------------------
   0 C :    0.140459
   1 O :   -0.342461
   2 C :    0.062704
   3 C :    0.043497
   4 C :   -0.050008
   5 N :   -0.041664
   6 O :   -0.202869
   7 H :    0.037312
   8 H :    0.005785
   9 H :    0.019016
  10 H :    0.007912
  11 H :    0.015947
  12 H :    0.033515
  13 H :    0.039577
  14 H :    0.114606
  15 H :    0.116672
Sum of atomic charges:   -0.0000000

LOEWDIN ATOMIC CHARGES
----------------------
   0 C :    0.048733
   1 O :   -0.146713
   2 C :    0.019324
   3 C :   -0.055833
   4 C :    0.005501
   5 N :    0.022381
   6 O :   -0.194657
   7 H :    0.024318
   8 H :    0.003264
   9 H :    0.012048
  10 H :    0.021631
  11 H :    0.028596
  12 H :    0.031654
  13 H :    0.039894
  14 H :    0.066999
  15 H :    0.072861

  Mayer bond orders larger than 0.1
B(  0-C ,  1-O ) :   0.9972 B(  0-C ,  7-H ) :   0.9768 B(  0-C ,  8-H ) :   0.9537
B(  0-C ,  9-H ) :   0.9591 B(  1-O ,  2-C ) :   1.0153 B(  2-C ,  3-C ) :   1.0846
B(  2-C ,  4-C ) :   0.8997 B(  2-C , 10-H ) :   0.8944 B(  3-C , 11-H ) :   0.9504
B(  3-C , 12-H ) :   0.9590 B(  3-C , 13-H ) :   0.9521 B(  4-C ,  5-N ) :   1.2807
B(  4-C ,  6-O ) :   2.1105 B(  5-N , 14-H ) :   0.9219 B(  5-N , 15-H ) :   0.9376

FINAL SINGLE POINT ENERGY      -362.348209704535

DIPOLE MOMENT
-------------
                                X             Y             Z
Electronic contribution:      3.40900      -0.68188       2.53931
Nuclear contribution   :     -3.29663       0.77261      -3.66960
                        -----------------------------------------
Total Dipole Moment    :      0.11237       0.09073      -1.13029
                        -----------------------------------------
Magnitude (a.u.)       :      1.13948
Magnitude (Debye)      :      2.89632

                             ****ORCA TERMINATED NORMALLY****
TOTAL RUN TIME: 0 days 0 hours 0 minutes 7 seconds 115 msec
