                         Program Version 3.0.3 - RELEASE   -
|  1> ! RI PBE def2-SVP def2-SVP/J NBO PAL2
|  2> % maxcore 2000
|  3> % output
|  4>     # printlevel mini
|  5>     print[ P_Basis ] 0
|  6>     print[ P_SCFInfo ] 1
|  7>     print[ P_SCFIterInfo ] 1
|  8>     print[ P_OrbEn ] 0
|  9>     print[ P_Cartesian ] 0
| 10> end
| 11> *xyz 0 1
| 12>  C        4.3851960000    -0.0423340000     1.2919600000
| 13>  O        3.5997470000    -0.7653010000     0.3779800000
| 14>  C        3.7091210000    -0.2875300000    -0.9407380000
| 15>  C        5.0422540000    -0.5887240000    -1.5647980000
| 16>  C        5.5266960000    -1.9979250000    -1.6186610000
| 17>  N        5.6723400000     0.4132920000    -2.0310230000
| 18>  O        6.8668600000     0.0449190000    -2.6300240000
| 19>  H        4.1997710000    -0.4656210000     2.2791910000
| 20>  H        4.1094160000     1.0206400000     1.2994640000
| 21>  H        5.4561280000    -0.1175540000     1.0663840000
| 22>  H        3.5295840000     0.7937320000    -0.9933810000
| 23>  H        2.9227650000    -0.7992350000    -1.5051800000
| 24>  H        4.9031120000    -2.6393020000    -0.9970000000
| 25>  H        6.5636870000    -2.0625000000    -1.2838530000
| 26>  H        5.5062290000    -2.3651690000    -2.6490190000
| 27>  H        7.2290950000     0.8879020000    -2.9157220000
| 28> *
| 29>
| 30>                          ****END OF INPUT****
 Total Charge           Charge          ....    0
 Multiplicity           Mult            ....    1
 Number of Electrons    NEL             ....   56
 Basis Dimension        Dim             ....  143

MULLIKEN ATOMIC CHARGES
-----------------------
   0 C :    0.142078
   1 O :   -0.351099
   2 C :    0.297052
   3 C :   -0.317407
   4 C :    0.097887
   5 N :   -0.027206
   6 O :   -0.182872
   7 H :    0.030512
   8 H :    0.006239
   9 H :    0.021448
  10 H :   -0.008430
  11 H :    0.016192
  12 H :    0.022905
  13 H :    0.037292
  14 H :    0.042969
  15 H :    0.172439
Sum of atomic charges:    0.0000000

LOEWDIN ATOMIC CHARGES
----------------------
   0 C :    0.050182
   1 O :   -0.146203
   2 C :    0.057894
   3 C :   -0.079650
   4 C :   -0.073823
   5 N :   -0.026260
   6 O :   -0.054554
   7 H :    0.022891
   8 H :    0.007571
   9 H :    0.006692
  10 H :    0.010520
  11 H :    0.028438
  12 H :    0.034298
  13 H :    0.041809
  14 H :    0.046935
  15 H :    0.073260

  Mayer bond orders larger than 0.1
B(  0-C ,  1-O ) :   1.0089 B(  0-C ,  7-H ) :   0.9765 B(  0-C ,  8-H ) :   0.9550
B(  0-C ,  9-H ) :   0.9549 B(  1-O ,  2-C ) :   1.0269 B(  2-C ,  3-C ) :   1.0356
B(  2-C , 10-H ) :   0.9118 B(  2-C , 11-H ) :   0.9163 B(  3-C ,  4-C ) :   1.0701
B(  3-C ,  5-N ) :   1.9073 B(  4-C , 12-H ) :   0.9387 B(  4-C , 13-H ) :   0.9315
B(  4-C , 14-H ) :   0.9368 B(  5-N ,  6-O ) :   1.0051 B(  6-O , 15-H ) :   0.9754

FINAL SINGLE POINT ENERGY      -362.265084507410

DIPOLE MOMENT
-------------
                                X             Y             Z
Electronic contribution:      0.91081       1.76118      -3.27767
Nuclear contribution   :     -0.55367      -1.57201       3.17955
                        -----------------------------------------
Total Dipole Moment    :      0.35715       0.18917      -0.09812
                        -----------------------------------------
Magnitude (a.u.)       :      0.41589
Magnitude (Debye)      :      1.05711

                             ****ORCA TERMINATED NORMALLY****
TOTAL RUN TIME: 0 days 0 hours 0 minutes 7 seconds 0 msec
