                         Program Version 3.0.3 - RELEASE   -
|  1> ! RI PBE def2-SVP def2-SVP/J NBO PAL2
|  2> % maxcore 2000
|  3> % output
|  4>     # printlevel mini
|  5>     print[ P_Basis ] 0
|  6>     print[ P_SCFInfo ] 1
|  7>     print[ P_SCFIterInfo ] 1
|  8>     print[ P_OrbEn ] 0
|  9>     print[ P_Cartesian ] 0
| 10> end
| 11> *xyz 0 1
| 12>  C        1.2928130000     0.0735250000    -0.5164960000
| 13>  O        2.6768370000     0.2281420000    -0.3681280000
| 14>  C        3.0110680000     1.2475260000     0.5375550000
| 15>  C        4.5209660000     1.3185160000     0.6632500000
| 16>  C        5.1116440000     0.0760770000     1.2323120000
| 17>  N        5.7871550000     0.1381610000     2.3008740000
| 18>  O        6.2560290000    -1.1069690000     2.6875690000
| 19>  H        1.1256600000    -0.7300880000    -1.2339200000
| 20>  H        0.8231760000     0.9920960000    -0.8955920000
| 21>  H        0.8123780000    -0.1929290000     0.4351410000
| 22>  H        2.5568780000     1.0485310000     1.5205300000
| 23>  H        2.6216220000     2.2143660000     0.1831200000
| 24>  H        4.7950140000     2.1642420000     1.2976390000
| 25>  H        4.9376390000     1.4951990000    -0.3348190000
| 26>  H        4.9501100000    -0.8766990000     0.7266190000
| 27>  H        6.7446100000    -0.9128860000     3.4919480000
| 28> *
| 29>
| 30>                          ****END OF INPUT****
 Total Charge           Charge          ....    0
 Multiplicity           Mult            ....    1
 Number of Electrons    NEL             ....   56
 Basis Dimension        Dim             ....  143

MULLIKEN ATOMIC CHARGES
-----------------------
   0 C :    0.144368
   1 O :   -0.352045
   2 C :    0.156063
   3 C :    0.070584
   4 C :   -0.061834
   5 N :   -0.048494
   6 O :   -0.180617
   7 H :    0.035305
   8 H :    0.004534
   9 H :    0.007106
  10 H :    0.000489
  11 H :   -0.002914
  12 H :    0.012221
  13 H :    0.032804
  14 H :    0.013135
  15 H :    0.169295
Sum of atomic charges:   -0.0000000

LOEWDIN ATOMIC CHARGES
----------------------
   0 C :    0.050288
   1 O :   -0.152031
   2 C :    0.064745
   3 C :   -0.055578
   4 C :   -0.032312
   5 N :   -0.019405
   6 O :   -0.058719
   7 H :    0.023945
   8 H :    0.004974
   9 H :    0.006303
  10 H :    0.005207
  11 H :    0.005106
  12 H :    0.037502
  13 H :    0.039933
  14 H :    0.008372
  15 H :    0.071670

  Mayer bond orders larger than 0.1
B(  0-C ,  1-O ) :   1.0201 B(  0-C ,  7-H ) :   0.9768 B(  0-C ,  8-H ) :   0.9556
B(  0-C ,  9-H ) :   0.9563 B(  1-O ,  2-C ) :   1.0218 B(  2-C ,  3-C ) :   1.0705
B(  2-C , 10-H ) :   0.9230 B(  2-C , 11-H ) :   0.9267 B(  3-C ,  4-C ) :   1.0450
B(  3-C , 12-H ) :   0.9114 B(  3-C , 13-H ) :   0.9116 B(  4-C ,  5-N ) :   1.9117
B(  4-C ,  6-O ) :   0.1125 B(  4-C , 14-H ) :   0.9461 B(  5-N ,  6-O ) :   0.9886
B(  6-O , 15-H ) :   0.9772

FINAL SINGLE POINT ENERGY      -362.258718435953

DIPOLE MOMENT
-------------
                                X             Y             Z
Electronic contribution:      6.50398      -2.49245       3.22589
Nuclear contribution   :     -6.89700       2.75198      -3.10716
                        -----------------------------------------
Total Dipole Moment    :     -0.39302       0.25952       0.11873
                        -----------------------------------------
Magnitude (a.u.)       :      0.48571
Magnitude (Debye)      :      1.23458

                             ****ORCA TERMINATED NORMALLY****
TOTAL RUN TIME: 0 days 0 hours 0 minutes 7 seconds 26 msec
