                         Program Version 3.0.3 - RELEASE   -
|  1> ! RI PBE def2-SVP def2-SVP/J NBO PAL2
|  2> % maxcore 2000
|  3> % output
|  4>     # printlevel mini
|  5>     print[ P_Basis ] 0
|  6>     print[ P_SCFInfo ] 1
|  7>     print[ P_SCFIterInfo ] 1
|  8>     print[ P_OrbEn ] 0
|  9>     print[ P_Cartesian ] 0
| 10> end
| 11> *xyz 0 1
| 12>  C        2.0791710000     0.0663840000     0.9775790000
| 13>  O        3.3559400000    -0.1748260000     0.4462210000
| 14>  C        3.3075360000    -0.6264680000    -0.8905600000
| 15>  C        4.7089170000    -0.8787940000    -1.4040320000
| 16>  C        5.5829060000     0.3420510000    -1.6375620000
| 17>  N        5.4422770000     1.3371890000    -0.7328300000
| 18>  O        6.3605310000     0.3980890000    -2.5682380000
| 19>  H        2.2073820000     0.3971430000     2.0082450000
| 20>  H        1.4681530000    -0.8456100000     0.9697970000
| 21>  H        1.5488680000     0.8452490000     0.4134460000
| 22>  H        2.7929790000     0.1171680000    -1.5175250000
| 23>  H        2.7262130000    -1.5581220000    -0.9407000000
| 24>  H        4.6580740000    -1.4038690000    -2.3584910000
| 25>  H        5.2319170000    -1.5370980000    -0.7018560000
| 26>  H        4.8246240000     1.2253560000     0.0549210000
| 27>  H        6.0346900000     2.1445580000    -0.8174220000
| 28> *
| 29>
| 30>                          ****END OF INPUT****
 Total Charge           Charge          ....    0
 Multiplicity           Mult            ....    1
 Number of Electrons    NEL             ....   56
 Basis Dimension        Dim             ....  143

MULLIKEN ATOMIC CHARGES
-----------------------
   0 C :    0.141374
   1 O :   -0.364425
   2 C :    0.139869
   3 C :    0.010076
   4 C :   -0.048893
   5 N :   -0.051218
   6 O :   -0.206247
   7 H :    0.037487
   8 H :    0.017808
   9 H :    0.014193
  10 H :    0.011221
  11 H :    0.004484
  12 H :    0.027168
  13 H :    0.050929
  14 H :    0.105924
  15 H :    0.110249
Sum of atomic charges:   -0.0000000

LOEWDIN ATOMIC CHARGES
----------------------
   0 C :    0.051587
   1 O :   -0.149047
   2 C :    0.059373
   3 C :   -0.078192
   4 C :    0.019652
   5 N :    0.011163
   6 O :   -0.199851
   7 H :    0.025102
   8 H :    0.010926
   9 H :    0.008852
  10 H :    0.009208
  11 H :    0.012374
  12 H :    0.046937
  13 H :    0.047778
  14 H :    0.054657
  15 H :    0.069481

  Mayer bond orders larger than 0.1
B(  0-C ,  1-O ) :   1.0005 B(  0-C ,  7-H ) :   0.9753 B(  0-C ,  8-H ) :   0.9594
B(  0-C ,  9-H ) :   0.9578 B(  1-O ,  2-C ) :   0.9769 B(  2-C ,  3-C ) :   1.0693
B(  2-C , 10-H ) :   0.9322 B(  2-C , 11-H ) :   0.9208 B(  3-C ,  4-C ) :   0.9719
B(  3-C , 12-H ) :   0.9077 B(  3-C , 13-H ) :   0.9115 B(  4-C ,  5-N ) :   1.2760
B(  4-C ,  6-O ) :   2.1216 B(  5-N , 14-H ) :   0.9091 B(  5-N , 15-H ) :   0.9383

FINAL SINGLE POINT ENERGY      -362.347137426533

DIPOLE MOMENT
-------------
                                X             Y             Z
Electronic contribution:      6.15036       1.39051      -2.95508
Nuclear contribution   :     -7.42306      -1.26605       4.04630
                        -----------------------------------------
Total Dipole Moment    :     -1.27270       0.12447       1.09122
                        -----------------------------------------
Magnitude (a.u.)       :      1.68108
Magnitude (Debye)      :      4.27296

                             ****ORCA TERMINATED NORMALLY****
TOTAL RUN TIME: 0 days 0 hours 0 minutes 7 seconds 228 msec
