                         Program Version 3.0.3 - RELEASE   -
|  1> ! RI PBE def2-SVP def2-SVP/J NBO PAL2
|  2> % maxcore 2000
|  3> % output
|  4>     # printlevel mini
|  5>     print[ P_Basis ] 0
|  6>     print[ P_SCFInfo ] 1
|  7>     print[ P_SCFIterInfo ] 1
|  8>     print[ P_OrbEn ] 0
|  9>     print[ P_Cartesian ] 0
| 10> end
| 11> *xyz 0 1
| 12>  C        1.1997350000    -0.1249120000    -0.5746530000
| 13>  O        2.5621220000     0.1279060000    -0.3780130000
| 14>  C        3.0657330000     1.0811650000    -1.2753090000
| 15>  C        4.5319500000     1.2948020000    -0.9729980000
| 16>  N        5.0875890000     2.2777750000    -1.8772870000
| 17>  C        6.5261770000     2.2619930000    -2.0204900000
| 18>  C        5.6558890000     1.7593730000    -3.1057120000
| 19>  H        0.8918370000    -0.8688840000     0.1606280000
| 20>  H        1.0032930000    -0.5183200000    -1.5822270000
| 21>  H        0.5963690000     0.7832990000    -0.4361520000
| 22>  H        2.5257490000     2.0346150000    -1.1794300000
| 23>  H        2.9400700000     0.7366170000    -2.3142870000
| 24>  H        5.0576250000     0.3267900000    -1.0299110000
| 25>  H        4.6357030000     1.6639610000     0.0514510000
| 26>  H        7.0819410000     1.5215400000    -1.4497830000
| 27>  H        7.0049400000     3.2315770000    -2.1043300000
| 28>  H        5.6294370000     0.6824870000    -3.2585930000
| 29>  H        5.4880400000     2.3549160000    -3.9962940000
| 30> *
| 31>
| 32>                          ****END OF INPUT****
 Total Charge           Charge          ....    0
 Multiplicity           Mult            ....    1
 Number of Electrons    NEL             ....   56
 Basis Dimension        Dim             ....  153

MULLIKEN ATOMIC CHARGES
-----------------------
   0 C :    0.152613
   1 O :   -0.351003
   2 C :    0.184943
   3 C :    0.095617
   4 N :   -0.303098
   5 C :    0.034410
   6 C :    0.022127
   7 H :    0.031843
   8 H :    0.001130
   9 H :    0.003379
  10 H :    0.001820
  11 H :   -0.014479
  12 H :   -0.007812
  13 H :    0.019708
  14 H :    0.025379
  15 H :    0.038943
  16 H :    0.027304
  17 H :    0.037175
Sum of atomic charges:   -0.0000000

LOEWDIN ATOMIC CHARGES
----------------------
   0 C :    0.050766
   1 O :   -0.149627
   2 C :    0.056485
   3 C :    0.006558
   4 N :   -0.108410
   5 C :    0.004671
   6 C :    0.000664
   7 H :    0.022509
   8 H :    0.003787
   9 H :    0.004920
  10 H :    0.007358
  11 H :    0.001642
  12 H :    0.003543
  13 H :    0.025702
  14 H :    0.014325
  15 H :    0.021251
  16 H :    0.012837
  17 H :    0.021020

  Mayer bond orders larger than 0.1
B(  0-C ,  1-O ) :   1.0209 B(  0-C ,  7-H ) :   0.9767 B(  0-C ,  8-H ) :   0.9561
B(  0-C ,  9-H ) :   0.9560 B(  1-O ,  2-C ) :   1.0320 B(  2-C ,  3-C ) :   1.0751
B(  2-C , 10-H ) :   0.9205 B(  2-C , 11-H ) :   0.9265 B(  3-C ,  4-N ) :   0.9949
B(  3-C , 12-H ) :   0.9055 B(  3-C , 13-H ) :   0.9320 B(  4-N ,  5-C ) :   0.9691
B(  4-N ,  6-C ) :   0.9602 B(  5-C ,  6-C ) :   1.0953 B(  5-C , 14-H ) :   0.9314
B(  5-C , 15-H ) :   0.9508 B(  6-C , 16-H ) :   0.9311 B(  6-C , 17-H ) :   0.9505

FINAL SINGLE POINT ENERGY      -326.400057434125

DIPOLE MOMENT
-------------
                                X             Y             Z
Electronic contribution:      1.35617       0.99773       0.97580
Nuclear contribution   :     -1.37978      -1.17932      -1.26238
                        -----------------------------------------
Total Dipole Moment    :     -0.02361      -0.18158      -0.28658
                        -----------------------------------------
Magnitude (a.u.)       :      0.34009
Magnitude (Debye)      :      0.86444

                             ****ORCA TERMINATED NORMALLY****
TOTAL RUN TIME: 0 days 0 hours 0 minutes 7 seconds 669 msec
