                         Program Version 3.0.3 - RELEASE   -
|  1> ! RI PBE def2-SVP def2-SVP/J NBO PAL2
|  2> % maxcore 2000
|  3> % output
|  4>     # printlevel mini
|  5>     print[ P_Basis ] 0
|  6>     print[ P_SCFInfo ] 1
|  7>     print[ P_SCFIterInfo ] 1
|  8>     print[ P_OrbEn ] 0
|  9>     print[ P_Cartesian ] 0
| 10> end
| 11> *xyz 0 1
| 12>  C        2.7786190000     0.2406690000    -0.3206600000
| 13>  O        2.5055320000    -1.0887050000     0.0362990000
| 14>  C        3.5585890000    -1.9192480000     0.2808140000
| 15>  C        3.0248000000    -3.2803690000     0.5954920000
| 16>  N        2.2996180000    -3.8224580000    -0.5479970000
| 17>  C        4.8388410000    -1.5439110000     0.2497460000
| 18>  C        6.0301740000    -2.4122430000     0.4829870000
| 19>  H        1.8152670000     0.7166950000    -0.4994380000
| 20>  H        3.3855710000     0.2926990000    -1.2315010000
| 21>  H        3.2996750000     0.7718520000     0.4841180000
| 22>  H        2.4047110000    -3.1834510000     1.5019020000
| 23>  H        3.8473960000    -3.9515450000     0.8394770000
| 24>  H        1.5641130000    -3.1770420000    -0.8094730000
| 25>  H        1.8519250000    -4.6940410000    -0.2932420000
| 26>  H        5.0627590000    -0.5056410000     0.0287550000
| 27>  H        5.7706590000    -3.4592370000     0.6363470000
| 28>  H        6.5986240000    -2.0793500000     1.3579770000
| 29>  H        6.7142260000    -2.3679730000    -0.3704140000
| 30> *
| 31>
| 32>                          ****END OF INPUT****
 Total Charge           Charge          ....    0
 Multiplicity           Mult            ....    1
 Number of Electrons    NEL             ....   56
 Basis Dimension        Dim             ....  153

MULLIKEN ATOMIC CHARGES
-----------------------
   0 C :    0.138440
   1 O :   -0.290847
   2 C :    0.042469
   3 C :    0.176902
   4 N :   -0.223447
   5 C :   -0.194571
   6 C :    0.043317
   7 H :    0.033207
   8 H :    0.026655
   9 H :    0.028625
  10 H :   -0.001774
  11 H :   -0.011506
  12 H :    0.091521
  13 H :    0.084928
  14 H :   -0.019308
  15 H :    0.019523
  16 H :    0.025148
  17 H :    0.030720
Sum of atomic charges:    0.0000000

LOEWDIN ATOMIC CHARGES
----------------------
   0 C :    0.057310
   1 O :   -0.079475
   2 C :    0.014241
   3 C :    0.006458
   4 N :   -0.111636
   5 C :   -0.123410
   6 C :   -0.062828
   7 H :    0.025316
   8 H :    0.015022
   9 H :    0.014192
  10 H :    0.009551
  11 H :    0.022662
  12 H :    0.046526
  13 H :    0.050396
  14 H :    0.021242
  15 H :    0.027879
  16 H :    0.032001
  17 H :    0.034553

  Mayer bond orders larger than 0.1
B(  0-C ,  1-O ) :   0.9923 B(  0-C ,  7-H ) :   0.9705 B(  0-C ,  8-H ) :   0.9565
B(  0-C ,  9-H ) :   0.9583 B(  1-O ,  2-C ) :   1.1078 B(  2-C ,  3-C ) :   1.0653
B(  2-C ,  5-C ) :   1.7823 B(  3-C ,  4-N ) :   1.0802 B(  3-C , 10-H ) :   0.8908
B(  3-C , 11-H ) :   0.9128 B(  4-N , 12-H ) :   0.9640 B(  4-N , 13-H ) :   0.9625
B(  5-C ,  6-C ) :   1.0948 B(  5-C , 14-H ) :   0.9362 B(  6-C , 15-H ) :   0.9539
B(  6-C , 16-H ) :   0.9441 B(  6-C , 17-H ) :   0.9453

FINAL SINGLE POINT ENERGY      -326.429716150543

DIPOLE MOMENT
-------------
                                X             Y             Z
Electronic contribution:     -3.35539       0.21410      -0.29158
Nuclear contribution   :      3.15666       0.09359       0.51426
                        -----------------------------------------
Total Dipole Moment    :     -0.19872       0.30769       0.22269
                        -----------------------------------------
Magnitude (a.u.)       :      0.42867
Magnitude (Debye)      :      1.08959

                             ****ORCA TERMINATED NORMALLY****
TOTAL RUN TIME: 0 days 0 hours 0 minutes 7 seconds 763 msec
