                         Program Version 3.0.3 - RELEASE   -
|  1> ! RI PBE def2-SVP def2-SVP/J NBO PAL2
|  2> % maxcore 2000
|  3> % output
|  4>     # printlevel mini
|  5>     print[ P_Basis ] 0
|  6>     print[ P_SCFInfo ] 1
|  7>     print[ P_SCFIterInfo ] 1
|  8>     print[ P_OrbEn ] 0
|  9>     print[ P_Cartesian ] 0
| 10> end
| 11> *xyz 0 1
| 12>  C        5.1435820000     1.9414170000     2.0259400000
| 13>  O        4.0362490000     2.6961860000     1.6097290000
| 14>  C        3.6467610000     2.4402970000     0.2766030000
| 15>  C        2.2858220000     3.0992010000     0.0937360000
| 16>  N        1.7258070000     2.7493760000    -1.1985450000
| 17>  C        4.6474840000     2.9795730000    -0.7002970000
| 18>  C        5.1405110000     2.3053360000    -1.7296610000
| 19>  H        5.3348050000     2.1986560000     3.0680480000
| 20>  H        6.0404880000     2.1612720000     1.4338500000
| 21>  H        4.9404950000     0.8636910000     1.9569720000
| 22>  H        3.5280770000     1.3582510000     0.1141660000
| 23>  H        2.4028440000     4.1799370000     0.2693280000
| 24>  H        1.6307670000     2.7145420000     0.8795880000
| 25>  H        2.2949360000     3.1304350000    -1.9450430000
| 26>  H        0.7965810000     3.1352890000    -1.2996680000
| 27>  H        4.9466920000     4.0126790000    -0.5268160000
| 28>  H        4.8560410000     1.2738450000    -1.9138890000
| 29>  H        5.8393570000     2.7562270000    -2.4253590000
| 30> *
| 31>
| 32>                          ****END OF INPUT****
 Total Charge           Charge          ....    0
 Multiplicity           Mult            ....    1
 Number of Electrons    NEL             ....   56
 Basis Dimension        Dim             ....  153

MULLIKEN ATOMIC CHARGES
-----------------------
   0 C :    0.157019
   1 O :   -0.340118
   2 C :    0.118245
   3 C :    0.100746
   4 N :   -0.218771
   5 C :   -0.083119
   6 C :   -0.018176
   7 H :    0.028648
   8 H :    0.007456
   9 H :    0.004605
  10 H :   -0.008059
  11 H :   -0.003683
  12 H :    0.013709
  13 H :    0.088478
  14 H :    0.093031
  15 H :    0.004685
  16 H :    0.027758
  17 H :    0.027547
Sum of atomic charges:   -0.0000000

LOEWDIN ATOMIC CHARGES
----------------------
   0 C :    0.050458
   1 O :   -0.140990
   2 C :    0.039692
   3 C :    0.007314
   4 N :   -0.110430
   5 C :   -0.042337
   6 C :   -0.054720
   7 H :    0.022113
   8 H :    0.004809
   9 H :    0.005840
  10 H :    0.011867
  11 H :    0.000872
  12 H :    0.024319
  13 H :    0.047839
  14 H :    0.054695
  15 H :    0.027422
  16 H :    0.025607
  17 H :    0.025627

  Mayer bond orders larger than 0.1
B(  0-C ,  1-O ) :   1.0142 B(  0-C ,  7-H ) :   0.9766 B(  0-C ,  8-H ) :   0.9546
B(  0-C ,  9-H ) :   0.9545 B(  1-O ,  2-C ) :   1.0148 B(  2-C ,  3-C ) :   1.0246
B(  2-C ,  5-C ) :   1.0299 B(  2-C , 10-H ) :   0.9099 B(  3-C ,  4-N ) :   1.0874
B(  3-C , 11-H ) :   0.9202 B(  3-C , 12-H ) :   0.9223 B(  4-N , 13-H ) :   0.9643
B(  4-N , 14-H ) :   0.9634 B(  5-C ,  6-C ) :   1.9603 B(  5-C , 15-H ) :   0.9447
B(  6-C , 16-H ) :   0.9444 B(  6-C , 17-H ) :   0.9419

FINAL SINGLE POINT ENERGY      -326.416786019019

DIPOLE MOMENT
-------------
                                X             Y             Z
Electronic contribution:     -0.82952       0.96348       0.89854
Nuclear contribution   :      0.96416      -0.76221      -1.18274
                        -----------------------------------------
Total Dipole Moment    :      0.13464       0.20127      -0.28420
                        -----------------------------------------
Magnitude (a.u.)       :      0.37337
Magnitude (Debye)      :      0.94904

                             ****ORCA TERMINATED NORMALLY****
TOTAL RUN TIME: 0 days 0 hours 0 minutes 7 seconds 611 msec
