                         Program Version 3.0.3 - RELEASE   -
|  1> ! RI PBE def2-SVP def2-SVP/J NBO PAL2
|  2> % maxcore 2000
|  3> % output
|  4>     # printlevel mini
|  5>     print[ P_Basis ] 0
|  6>     print[ P_SCFInfo ] 1
|  7>     print[ P_SCFIterInfo ] 1
|  8>     print[ P_OrbEn ] 0
|  9>     print[ P_Cartesian ] 0
| 10> end
| 11> *xyz 0 1
| 12>  C        2.3347800000    -0.4660570000    -0.7254630000
| 13>  O        2.1635550000    -0.5400430000     0.6672530000
| 14>  C        2.7296190000     0.5416010000     1.3651230000
| 15>  C        2.2810480000     0.4248440000     2.8177850000
| 16>  N        2.7424000000     1.5701090000     3.5767650000
| 17>  C        4.1938200000     0.5626540000     1.2660640000
| 18>  C        5.3934130000     0.5741460000     1.2078940000
| 19>  H        1.8266720000    -1.3290850000    -1.1551280000
| 20>  H        3.3944160000    -0.4969860000    -1.0048320000
| 21>  H        1.8894680000     0.4514680000    -1.1335290000
| 22>  H        2.3503750000     1.4955550000     0.9668020000
| 23>  H        2.6174110000    -0.5511080000     3.1953190000
| 24>  H        1.1885950000     0.4178510000     2.8112040000
| 25>  H        3.7505470000     1.5443140000     3.6745580000
| 26>  H        2.3485420000     1.5605020000     4.5079000000
| 27>  H        6.4562510000     0.5833570000     1.1463460000
| 28> *
| 29>
| 30>                          ****END OF INPUT****
 Total Charge           Charge          ....    0
 Multiplicity           Mult            ....    1
 Number of Electrons    NEL             ....   54
 Basis Dimension        Dim             ....  143

MULLIKEN ATOMIC CHARGES
-----------------------
   0 C :    0.154392
   1 O :   -0.330100
   2 C :    0.181241
   3 C :    0.089309
   4 N :   -0.218377
   5 C :    0.359532
   6 C :   -0.521573
   7 H :    0.033308
   8 H :    0.018092
   9 H :    0.001965
  10 H :    0.017022
  11 H :    0.003810
  12 H :    0.020693
  13 H :    0.095782
  14 H :    0.093945
  15 H :    0.000959
Sum of atomic charges:    0.0000000

LOEWDIN ATOMIC CHARGES
----------------------
   0 C :    0.053472
   1 O :   -0.131845
   2 C :    0.034206
   3 C :    0.013433
   4 N :   -0.106883
   5 C :   -0.028886
   6 C :   -0.078453
   7 H :    0.024184
   8 H :    0.010079
   9 H :    0.006511
  10 H :    0.027257
  11 H :    0.005154
  12 H :    0.026862
  13 H :    0.053125
  14 H :    0.055985
  15 H :    0.035799

  Mayer bond orders larger than 0.1
B(  0-C ,  1-O ) :   1.0051 B(  0-C ,  7-H ) :   0.9775 B(  0-C ,  8-H ) :   0.9576
B(  0-C ,  9-H ) :   0.9514 B(  1-O ,  2-C ) :   1.0514 B(  2-C ,  3-C ) :   1.0217
B(  2-C ,  5-C ) :   0.9561 B(  2-C , 10-H ) :   0.8884 B(  3-C ,  4-N ) :   1.0862
B(  3-C , 11-H ) :   0.9184 B(  3-C , 12-H ) :   0.9279 B(  4-N , 13-H ) :   0.9664
B(  4-N , 14-H ) :   0.9637 B(  5-C ,  6-C ) :   2.3334 B(  5-C , 15-H ) :  -0.1193
B(  6-C , 15-H ) :   1.1096

FINAL SINGLE POINT ENERGY      -325.170917871457

DIPOLE MOMENT
-------------
                                X             Y             Z
Electronic contribution:      1.76928      -0.32671       0.28186
Nuclear contribution   :     -1.54865       0.31399      -0.15709
                        -----------------------------------------
Total Dipole Moment    :      0.22063      -0.01272       0.12477
                        -----------------------------------------
Magnitude (a.u.)       :      0.25378
Magnitude (Debye)      :      0.64507

                             ****ORCA TERMINATED NORMALLY****
TOTAL RUN TIME: 0 days 0 hours 0 minutes 7 seconds 245 msec
