                         Program Version 3.0.3 - RELEASE   -
|  1> ! RI PBE def2-SVP def2-SVP/J NBO PAL2
|  2> % maxcore 2000
|  3> % output
|  4>     # printlevel mini
|  5>     print[ P_Basis ] 0
|  6>     print[ P_SCFInfo ] 1
|  7>     print[ P_SCFIterInfo ] 1
|  8>     print[ P_OrbEn ] 0
|  9>     print[ P_Cartesian ] 0
| 10> end
| 11> *xyz 0 1
| 12>  C        1.0705050000    -0.0145100000    -0.3961650000
| 13>  O        2.4295000000     0.2704950000    -0.2181660000
| 14>  C        3.0337270000     0.7808070000    -1.3792770000
| 15>  C        4.5028570000     1.0192230000    -1.0762710000
| 16>  N        5.2132100000    -0.1689550000    -0.6218120000
| 17>  C        5.2639640000     1.6264270000    -2.2144880000
| 18>  C        4.7847600000     1.9871170000    -3.3969960000
| 19>  H        0.6876990000    -0.4025710000     0.5481870000
| 20>  H        0.9159160000    -0.7689830000    -1.1803030000
| 21>  H        0.5015460000     0.8857690000    -0.6670210000
| 22>  H        2.5417370000     1.7184620000    -1.6800180000
| 23>  H        2.9293300000     0.0634500000    -2.2098040000
| 24>  H        4.5387460000     1.7344170000    -0.2420680000
| 25>  H        5.2549580000    -0.8507120000    -1.3719100000
| 26>  H        4.6936150000    -0.5937140000     0.1375300000
| 27>  H        6.3243320000     1.7491920000    -2.0071520000
| 28>  H        3.7392990000     1.8777990000    -3.6643310000
| 29>  H        5.4324980000     2.4174750000    -4.1519260000
| 30> *
| 31>
| 32>                          ****END OF INPUT****
 Total Charge           Charge          ....    0
 Multiplicity           Mult            ....    1
 Number of Electrons    NEL             ....   56
 Basis Dimension        Dim             ....  153

MULLIKEN ATOMIC CHARGES
-----------------------
   0 C :    0.151816
   1 O :   -0.347819
   2 C :    0.174726
   3 C :    0.044501
   4 N :   -0.193885
   5 C :   -0.071308
   6 C :   -0.032575
   7 H :    0.032096
   8 H :    0.005502
   9 H :    0.006323
  10 H :   -0.002236
  11 H :   -0.012948
  12 H :    0.022931
  13 H :    0.084144
  14 H :    0.090010
  15 H :    0.009695
  16 H :    0.014485
  17 H :    0.024544
Sum of atomic charges:   -0.0000000

LOEWDIN ATOMIC CHARGES
----------------------
   0 C :    0.050005
   1 O :   -0.148395
   2 C :    0.044560
   3 C :   -0.016248
   4 N :   -0.090394
   5 C :   -0.022476
   6 C :   -0.070811
   7 H :    0.023067
   8 H :    0.005451
   9 H :    0.005970
  10 H :    0.005223
  11 H :   -0.000551
  12 H :    0.038323
  13 H :    0.049950
  14 H :    0.049829
  15 H :    0.030035
  16 H :    0.019272
  17 H :    0.027191

  Mayer bond orders larger than 0.1
B(  0-C ,  1-O ) :   1.0141 B(  0-C ,  7-H ) :   0.9761 B(  0-C ,  8-H ) :   0.9561
B(  0-C ,  9-H ) :   0.9562 B(  1-O ,  2-C ) :   1.0318 B(  2-C ,  3-C ) :   1.0425
B(  2-C , 10-H ) :   0.9051 B(  2-C , 11-H ) :   0.9037 B(  3-C ,  4-N ) :   1.0741
B(  3-C ,  5-C ) :   1.0178 B(  3-C , 12-H ) :   0.8795 B(  4-N , 13-H ) :   0.9696
B(  4-N , 14-H ) :   0.9596 B(  5-C ,  6-C ) :   1.9982 B(  5-C , 15-H ) :   0.9548
B(  6-C , 16-H ) :   0.9301 B(  6-C , 17-H ) :   0.9399

FINAL SINGLE POINT ENERGY      -326.417370176402

DIPOLE MOMENT
-------------
                                X             Y             Z
Electronic contribution:      2.25547       0.10931       1.82690
Nuclear contribution   :     -2.91317      -0.28713      -2.13817
                        -----------------------------------------
Total Dipole Moment    :     -0.65770      -0.17782      -0.31128
                        -----------------------------------------
Magnitude (a.u.)       :      0.74906
Magnitude (Debye)      :      1.90395

                             ****ORCA TERMINATED NORMALLY****
TOTAL RUN TIME: 0 days 0 hours 0 minutes 7 seconds 499 msec
