                         Program Version 3.0.3 - RELEASE   -
|  1> ! RI PBE def2-SVP def2-SVP/J NBO PAL2
|  2> % maxcore 2000
|  3> % output
|  4>     # printlevel mini
|  5>     print[ P_Basis ] 0
|  6>     print[ P_SCFInfo ] 1
|  7>     print[ P_SCFIterInfo ] 1
|  8>     print[ P_OrbEn ] 0
|  9>     print[ P_Cartesian ] 0
| 10> end
| 11> *xyz 0 1
| 12>  C        1.0048750000     0.2547650000    -0.1001250000
| 13>  O        2.4005960000     0.2245980000     0.0241420000
| 14>  C        2.8238420000     0.0418540000     1.3479420000
| 15>  C        4.3525840000     0.0780940000     1.3526840000
| 16>  N        4.9241590000     1.3067790000     0.8226960000
| 17>  C        4.8376360000    -0.1769430000     2.7039770000
| 18>  C        5.1998540000    -0.3730540000     3.8309950000
| 19>  H        0.7715480000     0.4000280000    -1.1550380000
| 20>  H        0.5674270000     1.0792590000     0.4794030000
| 21>  H        0.5504000000    -0.6860050000     0.2388050000
| 22>  H        2.4668550000    -0.9203530000     1.7436760000
| 23>  H        2.4335880000     0.8414650000     1.9969720000
| 24>  H        4.6912410000    -0.7426680000     0.7076830000
| 25>  H        4.7433030000     2.0735390000     1.4605080000
| 26>  H        4.4595830000     1.5218280000    -0.0524510000
| 27>  H        5.5378180000    -0.5517850000     4.8243210000
| 28> *
| 29>
| 30>                          ****END OF INPUT****
 Total Charge           Charge          ....    0
 Multiplicity           Mult            ....    1
 Number of Electrons    NEL             ....   54
 Basis Dimension        Dim             ....  143

MULLIKEN ATOMIC CHARGES
-----------------------
   0 C :    0.152021
   1 O :   -0.351609
   2 C :    0.196436
   3 C :    0.055323
   4 N :   -0.177029
   5 C :    0.383389
   6 C :   -0.508517
   7 H :    0.033462
   8 H :    0.007784
   9 H :    0.008298
  10 H :   -0.004446
  11 H :   -0.008849
  12 H :    0.029595
  13 H :    0.089375
  14 H :    0.094531
  15 H :    0.000237
Sum of atomic charges:   -0.0000000

LOEWDIN ATOMIC CHARGES
----------------------
   0 C :    0.053458
   1 O :   -0.150795
   2 C :    0.054063
   3 C :   -0.016359
   4 N :   -0.084149
   5 C :   -0.014698
   6 C :   -0.077979
   7 H :    0.023999
   8 H :    0.006678
   9 H :    0.007149
  10 H :    0.008180
  11 H :    0.003260
  12 H :    0.046739
  13 H :    0.052914
  14 H :    0.051741
  15 H :    0.035799

  Mayer bond orders larger than 0.1
B(  0-C ,  1-O ) :   1.0098 B(  0-C ,  7-H ) :   0.9765 B(  0-C ,  8-H ) :   0.9578
B(  0-C ,  9-H ) :   0.9578 B(  1-O ,  2-C ) :   1.0307 B(  2-C ,  3-C ) :   1.0131
B(  2-C , 10-H ) :   0.9166 B(  2-C , 11-H ) :   0.9137 B(  3-C ,  4-N ) :   1.0930
B(  3-C ,  5-C ) :   0.9816 B(  3-C , 12-H ) :   0.8603 B(  4-N , 13-H ) :   0.9645
B(  4-N , 14-H ) :   0.9569 B(  5-C ,  6-C ) :   2.3401 B(  5-C , 15-H ) :  -0.1136
B(  6-C , 15-H ) :   1.1034

FINAL SINGLE POINT ENERGY      -325.172433355110

DIPOLE MOMENT
-------------
                                X             Y             Z
Electronic contribution:      4.56084      -0.77364       1.77217
Nuclear contribution   :     -5.44458       0.89008      -1.65132
                        -----------------------------------------
Total Dipole Moment    :     -0.88374       0.11644       0.12085
                        -----------------------------------------
Magnitude (a.u.)       :      0.89954
Magnitude (Debye)      :      2.28644

                             ****ORCA TERMINATED NORMALLY****
TOTAL RUN TIME: 0 days 0 hours 0 minutes 6 seconds 949 msec
