                         Program Version 3.0.3 - RELEASE   -
|  1> ! RI PBE def2-SVP def2-SVP/J NBO PAL2
|  2> % maxcore 2000
|  3> % output
|  4>     # printlevel mini
|  5>     print[ P_Basis ] 0
|  6>     print[ P_SCFInfo ] 1
|  7>     print[ P_SCFIterInfo ] 1
|  8>     print[ P_OrbEn ] 0
|  9>     print[ P_Cartesian ] 0
| 10> end
| 11> *xyz 0 1
| 12>  C        1.9314580000     0.3363190000    -0.8372070000
| 13>  O        3.0980360000     0.3055400000    -0.0654790000
| 14>  C        2.8783440000    -0.2123960000     1.2206290000
| 15>  C        4.1981870000    -0.1827540000     1.9636420000
| 16>  N        4.1252250000    -0.8044550000     3.2692790000
| 17>  C        5.4420740000    -1.1165010000     3.7740720000
| 18>  C        3.3887250000    -0.0091520000     4.2253860000
| 19>  H        2.1911260000     0.7483270000    -1.8128060000
| 20>  H        1.1594440000     0.9701890000    -0.3778120000
| 21>  H        1.5118530000    -0.6701280000    -0.9764920000
| 22>  H        2.5110320000    -1.2483270000     1.1693270000
| 23>  H        2.1112820000     0.3847170000     1.7362790000
| 24>  H        4.5592860000     0.8610580000     2.0187610000
| 25>  H        4.9231200000    -0.7354620000     1.3600080000
| 26>  H        5.9633350000    -1.7752890000     3.0762950000
| 27>  H        5.3569230000    -1.6355500000     4.7316480000
| 28>  H        6.0681200000    -0.2185430000     3.9300350000
| 29>  H        2.3649220000     0.1557150000     3.8873370000
| 30>  H        3.8538450000     0.9782810000     4.4042620000
| 31>  H        3.3398830000    -0.5369090000     5.1803460000
| 32> *
| 33>
| 34>                          ****END OF INPUT****
 Total Charge           Charge          ....    0
 Multiplicity           Mult            ....    1
 Number of Electrons    NEL             ....   58
 Basis Dimension        Dim             ....  163

MULLIKEN ATOMIC CHARGES
-----------------------
   0 C :    0.147631
   1 O :   -0.348627
   2 C :    0.179937
   3 C :    0.099848
   4 N :   -0.349053
   5 C :    0.093709
   6 C :    0.097871
   7 H :    0.030793
   8 H :    0.005088
   9 H :    0.002043
  10 H :   -0.004045
  11 H :   -0.010446
  12 H :   -0.014044
  13 H :    0.010790
  14 H :    0.025194
  15 H :    0.018712
  16 H :   -0.011506
  17 H :    0.022853
  18 H :   -0.014860
  19 H :    0.018112
Sum of atomic charges:   -0.0000000

LOEWDIN ATOMIC CHARGES
----------------------
   0 C :    0.049519
   1 O :   -0.146950
   2 C :    0.055519
   3 C :    0.009071
   4 N :   -0.113698
   5 C :    0.002065
   6 C :    0.001988
   7 H :    0.022403
   8 H :    0.004259
   9 H :    0.004424
  10 H :    0.004797
  11 H :    0.000345
  12 H :    0.000116
  13 H :    0.025146
  14 H :    0.022471
  15 H :    0.021240
  16 H :   -0.001709
  17 H :    0.018656
  18 H :   -0.002163
  19 H :    0.022503

  Mayer bond orders larger than 0.1
B(  0-C ,  1-O ) :   1.0231 B(  0-C ,  7-H ) :   0.9761 B(  0-C ,  8-H ) :   0.9564
B(  0-C ,  9-H ) :   0.9548 B(  1-O ,  2-C ) :   1.0275 B(  2-C ,  3-C ) :   1.0685
B(  2-C , 10-H ) :   0.9214 B(  2-C , 11-H ) :   0.9198 B(  3-C ,  4-N ) :   1.0101
B(  3-C , 12-H ) :   0.9088 B(  3-C , 13-H ) :   0.9321 B(  4-N ,  5-C ) :   1.0398
B(  4-N ,  6-C ) :   1.0350 B(  5-C , 14-H ) :   0.9670 B(  5-C , 15-H ) :   0.9663
B(  5-C , 16-H ) :   0.9362 B(  6-C , 17-H ) :   0.9652 B(  6-C , 18-H ) :   0.9337
B(  6-C , 19-H ) :   0.9649

FINAL SINGLE POINT ENERGY      -327.623259539847

DIPOLE MOMENT
-------------
                                X             Y             Z
Electronic contribution:      0.15089      -0.20792      -3.03685
Nuclear contribution   :     -0.42074       0.21153       3.19697
                        -----------------------------------------
Total Dipole Moment    :     -0.26985       0.00361       0.16012
                        -----------------------------------------
Magnitude (a.u.)       :      0.31380
Magnitude (Debye)      :      0.79761

                             ****ORCA TERMINATED NORMALLY****
TOTAL RUN TIME: 0 days 0 hours 0 minutes 8 seconds 479 msec
