                         Program Version 3.0.3 - RELEASE   -
|  1> ! RI PBE def2-SVP def2-SVP/J NBO PAL2
|  2> % maxcore 2000
|  3> % output
|  4>     # printlevel mini
|  5>     print[ P_Basis ] 0
|  6>     print[ P_SCFInfo ] 1
|  7>     print[ P_SCFIterInfo ] 1
|  8>     print[ P_OrbEn ] 0
|  9>     print[ P_Cartesian ] 0
| 10> end
| 11> *xyz 0 1
| 12>  C        4.9240700000     0.8968190000    -0.0075560000
| 13>  O        3.5983270000     0.4650190000    -0.1817010000
| 14>  C        3.4056900000    -0.5666850000    -1.0297950000
| 15>  C        4.3366890000    -1.2249890000    -1.7241070000
| 16>  N        4.0387480000    -2.2812930000    -2.5782140000
| 17>  C        4.9456470000    -2.9951960000    -3.3145260000
| 18>  N        6.2072770000    -2.8821080000    -3.3992450000
| 19>  H        4.8925800000     1.7239200000     0.6992910000
| 20>  H        5.3551100000     1.2431960000    -0.9546610000
| 21>  H        5.5515800000     0.0942490000     0.3985130000
| 22>  H        2.3530520000    -0.8226830000    -1.0942930000
| 23>  H        5.3838590000    -0.9680920000    -1.6580320000
| 24>  H        3.0744300000    -2.5508550000    -2.6686330000
| 25>  H        4.4585460000    -3.7729110000    -3.9054760000
| 26>  H        6.5787840000    -2.1344020000    -2.8170850000
| 27> *
| 28>
| 29>                          ****END OF INPUT****
 Total Charge           Charge          ....    0
 Multiplicity           Mult            ....    1
 Number of Electrons    NEL             ....   54
 Basis Dimension        Dim             ....  138

MULLIKEN ATOMIC CHARGES
-----------------------
   0 C :    0.117097
   1 O :   -0.265540
   2 C :    0.094741
   3 C :   -0.012730
   4 N :   -0.057155
   5 C :   -0.019232
   6 N :   -0.148448
   7 H :    0.045420
   8 H :    0.031511
   9 H :    0.032345
  10 H :    0.001174
  11 H :   -0.007330
  12 H :    0.111480
  13 H :    0.005999
  14 H :    0.070668
Sum of atomic charges:   -0.0000000

LOEWDIN ATOMIC CHARGES
----------------------
   0 C :    0.057264
   1 O :   -0.068298
   2 C :   -0.011872
   3 C :   -0.073638
   4 N :    0.023929
   5 C :    0.008428
   6 N :   -0.165492
   7 H :    0.030261
   8 H :    0.015424
   9 H :    0.015351
  10 H :    0.019897
  11 H :    0.018767
  12 H :    0.080531
  13 H :    0.014198
  14 H :    0.035250

  Mayer bond orders larger than 0.1
B(  0-C ,  1-O ) :   0.9944 B(  0-C ,  7-H ) :   0.9712 B(  0-C ,  8-H ) :   0.9546
B(  0-C ,  9-H ) :   0.9549 B(  1-O ,  2-C ) :   1.1491 B(  1-O ,  3-C ) :   0.1017
B(  2-C ,  3-C ) :   1.6870 B(  2-C , 10-H ) :   0.9784 B(  3-C ,  4-N ) :   1.0799
B(  3-C , 11-H ) :   0.9357 B(  4-N ,  5-C ) :   1.1439 B(  4-N , 12-H ) :   0.9240
B(  5-C ,  6-N ) :   1.9854 B(  5-C , 13-H ) :   0.9429 B(  6-N , 14-H ) :   0.9592

FINAL SINGLE POINT ENERGY      -341.252885889732

DIPOLE MOMENT
-------------
                                X             Y             Z
Electronic contribution:     -2.21944      -1.62950      -1.05847
Nuclear contribution   :      1.53739       2.17544       1.62202
                        -----------------------------------------
Total Dipole Moment    :     -0.68206       0.54593       0.56355
                        -----------------------------------------
Magnitude (a.u.)       :      1.03963
Magnitude (Debye)      :      2.64253

                             ****ORCA TERMINATED NORMALLY****
TOTAL RUN TIME: 0 days 0 hours 0 minutes 6 seconds 124 msec
