                         Program Version 3.0.3 - RELEASE   -
|  1> ! RI PBE def2-SVP def2-SVP/J NBO PAL2
|  2> % maxcore 2000
|  3> % output
|  4>     # printlevel mini
|  5>     print[ P_Basis ] 0
|  6>     print[ P_SCFInfo ] 1
|  7>     print[ P_SCFIterInfo ] 1
|  8>     print[ P_OrbEn ] 0
|  9>     print[ P_Cartesian ] 0
| 10> end
| 11> *xyz 0 1
| 12>  C        1.5802510000     0.0500710000    -0.0243030000
| 13>  O        2.9224090000     0.3239000000     0.3096360000
| 14>  C        3.1565450000     0.8831720000     1.5165030000
| 15>  C        2.2283170000     1.3069010000     2.3797770000
| 16>  N        4.5268370000     0.9260480000     1.7198330000
| 17>  C        5.2596840000     1.9226430000     2.3359120000
| 18>  N        4.8832000000     2.9867440000     2.9038950000
| 19>  H        1.6054630000    -0.4757980000    -0.9768040000
| 20>  H        1.0063410000     0.9750610000    -0.1351820000
| 21>  H        1.1080130000    -0.5796790000     0.7358810000
| 22>  H        1.1788600000     1.2950570000     2.1317460000
| 23>  H        2.5137980000     1.6389120000     3.3657430000
| 24>  H        5.0476470000     0.2789640000     1.1505290000
| 25>  H        6.3276400000     1.6993260000     2.2974410000
| 26>  H        3.8722840000     3.1011900000     2.8603030000
| 27> *
| 28>
| 29>                          ****END OF INPUT****
 Total Charge           Charge          ....    0
 Multiplicity           Mult            ....    1
 Number of Electrons    NEL             ....   54
 Basis Dimension        Dim             ....  138

MULLIKEN ATOMIC CHARGES
-----------------------
   0 C :    0.128874
   1 O :   -0.271786
   2 C :    0.122256
   3 C :   -0.154880
   4 N :   -0.052454
   5 C :   -0.022637
   6 N :   -0.128261
   7 H :    0.042166
   8 H :    0.039688
   9 H :    0.037220
  10 H :    0.016038
  11 H :    0.031884
  12 H :    0.121721
  13 H :    0.015908
  14 H :    0.074263
Sum of atomic charges:   -0.0000000

LOEWDIN ATOMIC CHARGES
----------------------
   0 C :    0.065323
   1 O :   -0.076655
   2 C :    0.051808
   3 C :   -0.190274
   4 N :    0.010342
   5 C :    0.020496
   6 N :   -0.143938
   7 H :    0.029467
   8 H :    0.019583
   9 H :    0.019500
  10 H :    0.026442
  11 H :    0.031249
  12 H :    0.081887
  13 H :    0.015728
  14 H :    0.039042

  Mayer bond orders larger than 0.1
B(  0-C ,  1-O ) :   0.9738 B(  0-C ,  7-H ) :   0.9723 B(  0-C ,  8-H ) :   0.9632
B(  0-C ,  9-H ) :   0.9590 B(  1-O ,  2-C ) :   1.1646 B(  2-C ,  3-C ) :   1.7887
B(  2-C ,  4-N ) :   1.0875 B(  3-C , 10-H ) :   0.9327 B(  3-C , 11-H ) :   0.9176
B(  4-N ,  5-C ) :   1.1126 B(  4-N , 12-H ) :   0.9071 B(  5-C ,  6-N ) :   2.0282
B(  5-C , 13-H ) :   0.9421 B(  6-N , 14-H ) :   0.9425

FINAL SINGLE POINT ENERGY      -341.260251925883

DIPOLE MOMENT
-------------
                                X             Y             Z
Electronic contribution:      4.20057       0.33959       0.10905
Nuclear contribution   :     -4.84050      -1.40599      -0.96656
                        -----------------------------------------
Total Dipole Moment    :     -0.63993      -1.06640      -0.85751
                        -----------------------------------------
Magnitude (a.u.)       :      1.51064
Magnitude (Debye)      :      3.83975

                             ****ORCA TERMINATED NORMALLY****
TOTAL RUN TIME: 0 days 0 hours 0 minutes 6 seconds 779 msec
