                         Program Version 3.0.3 - RELEASE   -
|  1> ! RI PBE def2-SVP def2-SVP/J NBO PAL2
|  2> % maxcore 2000
|  3> % output
|  4>     # printlevel mini
|  5>     print[ P_Basis ] 0
|  6>     print[ P_SCFInfo ] 1
|  7>     print[ P_SCFIterInfo ] 1
|  8>     print[ P_OrbEn ] 0
|  9>     print[ P_Cartesian ] 0
| 10> end
| 11> *xyz 0 1
| 12>  C        3.0157990000    -0.0777460000     1.2319630000
| 13>  O        2.3083230000     0.1044670000     0.0228870000
| 14>  C        3.0544990000     0.2783140000    -1.1151890000
| 15>  C        2.4000860000     0.4565940000    -2.2809910000
| 16>  N        1.0522920000     0.4725270000    -2.3849080000
| 17>  C        4.4662570000     0.2706210000    -1.0674190000
| 18>  N        5.6214070000     0.2630530000    -1.0141660000
| 19>  H        2.2622320000    -0.1969030000     2.0088440000
| 20>  H        3.6421670000     0.7893120000     1.4628390000
| 21>  H        3.6451970000    -0.9721450000     1.1956280000
| 22>  H        2.9718800000     0.5949930000    -3.1881190000
| 23>  H        0.4872950000     0.3477160000    -1.5653510000
| 24>  H        0.6024270000     0.6078860000    -3.2675490000
| 25> *
| 26>
| 27>                          ****END OF INPUT****
 Total Charge           Charge          ....    0
 Multiplicity           Mult            ....    1
 Number of Electrons    NEL             ....   52
 Basis Dimension        Dim             ....  128

MULLIKEN ATOMIC CHARGES
-----------------------
   0 C :    0.142028
   1 O :   -0.315349
   2 C :   -0.005047
   3 C :    0.017969
   4 N :   -0.061854
   5 C :   -0.175356
   6 N :    0.030339
   7 H :    0.035327
   8 H :    0.038517
   9 H :    0.037633
  10 H :    0.010094
  11 H :    0.123612
  12 H :    0.122087
Sum of atomic charges:   -0.0000000

LOEWDIN ATOMIC CHARGES
----------------------
   0 C :    0.062997
   1 O :   -0.105083
   2 C :   -0.086511
   3 C :   -0.000495
   4 N :    0.030014
   5 C :   -0.076503
   6 N :   -0.085541
   7 H :    0.026848
   8 H :    0.020267
   9 H :    0.020313
  10 H :    0.040913
  11 H :    0.075898
  12 H :    0.076882

  Mayer bond orders larger than 0.1
B(  0-C ,  1-O ) :   0.9722 B(  0-C ,  7-H ) :   0.9736 B(  0-C ,  8-H ) :   0.9634
B(  0-C ,  9-H ) :   0.9631 B(  1-O ,  2-C ) :   1.1087 B(  2-C ,  3-C ) :   1.6331
B(  2-C ,  5-C ) :   1.1106 B(  3-C ,  4-N ) :   1.2899 B(  3-C , 10-H ) :   0.9446
B(  4-N , 11-H ) :   0.9473 B(  4-N , 12-H ) :   0.9529 B(  5-C ,  6-N ) :   2.9187

FINAL SINGLE POINT ENERGY      -340.055707843714

DIPOLE MOMENT
-------------
                                X             Y             Z
Electronic contribution:      2.47560       0.34107      -2.26313
Nuclear contribution   :     -4.42352      -0.29652       1.99068
                        -----------------------------------------
Total Dipole Moment    :     -1.94792       0.04455      -0.27245
                        -----------------------------------------
Magnitude (a.u.)       :      1.96739
Magnitude (Debye)      :      5.00070

                             ****ORCA TERMINATED NORMALLY****
TOTAL RUN TIME: 0 days 0 hours 0 minutes 5 seconds 936 msec
