                         Program Version 3.0.3 - RELEASE   -
|  1> ! RI PBE def2-SVP def2-SVP/J NBO PAL2
|  2> % maxcore 2000
|  3> % output
|  4>     # printlevel mini
|  5>     print[ P_Basis ] 0
|  6>     print[ P_SCFInfo ] 1
|  7>     print[ P_SCFIterInfo ] 1
|  8>     print[ P_OrbEn ] 0
|  9>     print[ P_Cartesian ] 0
| 10> end
| 11> *xyz 0 1
| 12>  C        1.3941350000    -0.2639380000     0.3335360000
| 13>  O        2.6879410000     0.2133200000     0.5862140000
| 14>  C        2.9622740000     1.4816540000     0.0151630000
| 15>  C        2.4820060000     2.5947910000     0.9387060000
| 16>  N        2.6218030000     3.9003510000     0.3126650000
| 17>  C        4.4555230000     1.5353830000    -0.2294000000
| 18>  N        4.8465370000     0.4935860000    -1.1602070000
| 19>  H        1.3168120000    -1.2503520000     0.7926640000
| 20>  H        1.2062060000    -0.3566540000    -0.7441410000
| 21>  H        0.6170130000     0.3792800000     0.7662620000
| 22>  H        2.4498510000     1.5727260000    -0.9526640000
| 23>  H        3.0067060000     2.4929120000     1.9011270000
| 24>  H        1.4200110000     2.4342420000     1.1416830000
| 25>  H        3.5826140000     4.2160190000     0.3384100000
| 26>  H        2.0749430000     4.5929930000     0.8062410000
| 27>  H        4.9609030000     1.4777520000     0.7496580000
| 28>  H        4.6970160000     2.5064260000    -0.6717350000
| 29>  H        4.6037300000    -0.4060950000    -0.7634020000
| 30>  H        5.8471360000     0.5003040000    -1.3083800000
| 31> *
| 32>
| 33>                          ****END OF INPUT****
 Total Charge           Charge          ....    0
 Multiplicity           Mult            ....    1
 Number of Electrons    NEL             ....   58
 Basis Dimension        Dim             ....  158

MULLIKEN ATOMIC CHARGES
-----------------------
   0 C :    0.164627
   1 O :   -0.354445
   2 C :    0.053192
   3 C :    0.105552
   4 N :   -0.214631
   5 C :    0.112791
   6 N :   -0.208390
   7 H :    0.023940
   8 H :    0.009942
   9 H :    0.000788
  10 H :   -0.010568
  11 H :   -0.010642
  12 H :   -0.004762
  13 H :    0.089064
  14 H :    0.092937
  15 H :   -0.018736
  16 H :   -0.004273
  17 H :    0.087580
  18 H :    0.086034
Sum of atomic charges:    0.0000000

LOEWDIN ATOMIC CHARGES
----------------------
   0 C :    0.052602
   1 O :   -0.146694
   2 C :    0.036440
   3 C :   -0.003533
   4 N :   -0.108321
   5 C :   -0.000891
   6 N :   -0.110333
   7 H :    0.021201
   8 H :    0.008044
   9 H :    0.001423
  10 H :    0.009595
  11 H :    0.000081
  12 H :    0.020000
  13 H :    0.048260
  14 H :    0.055104
  15 H :   -0.000683
  16 H :    0.020480
  17 H :    0.046294
  18 H :    0.050930

  Mayer bond orders larger than 0.1
B(  0-C ,  1-O ) :   1.0143 B(  0-C ,  7-H ) :   0.9745 B(  0-C ,  8-H ) :   0.9579
B(  0-C ,  9-H ) :   0.9518 B(  1-O ,  2-C ) :   0.9935 B(  2-C ,  3-C ) :   1.0436
B(  2-C ,  5-C ) :   1.0551 B(  2-C , 10-H ) :   0.8916 B(  3-C ,  4-N ) :   1.0982
B(  3-C , 11-H ) :   0.9114 B(  3-C , 12-H ) :   0.9226 B(  4-N , 13-H ) :   0.9669
B(  4-N , 14-H ) :   0.9615 B(  5-C ,  6-N ) :   1.1047 B(  5-C , 15-H ) :   0.9086
B(  5-C , 16-H ) :   0.9205 B(  6-N , 17-H ) :   0.9595 B(  6-N , 18-H ) :   0.9655

FINAL SINGLE POINT ENERGY      -343.654651166375

DIPOLE MOMENT
-------------
                                X             Y             Z
Electronic contribution:      1.01940      -0.83029      -0.04672
Nuclear contribution   :     -0.94502       1.08440       0.60144
                        -----------------------------------------
Total Dipole Moment    :      0.07438       0.25411       0.55472
                        -----------------------------------------
Magnitude (a.u.)       :      0.61467
Magnitude (Debye)      :      1.56237

                             ****ORCA TERMINATED NORMALLY****
TOTAL RUN TIME: 0 days 0 hours 0 minutes 8 seconds 296 msec
