                         Program Version 3.0.3 - RELEASE   -
|  1> ! RI PBE def2-SVP def2-SVP/J NBO PAL2
|  2> % maxcore 2000
|  3> % output
|  4>     # printlevel mini
|  5>     print[ P_Basis ] 0
|  6>     print[ P_SCFInfo ] 1
|  7>     print[ P_SCFIterInfo ] 1
|  8>     print[ P_OrbEn ] 0
|  9>     print[ P_Cartesian ] 0
| 10> end
| 11> *xyz 0 1
| 12>  C        2.1711900000    -2.0258070000    -1.2411360000
| 13>  O        3.3477850000    -1.7759170000    -1.9568760000
| 14>  C        4.0798090000    -0.6963960000    -1.4340440000
| 15>  C        5.3772360000    -0.5105740000    -2.2092780000
| 16>  N        6.1558630000     0.6089540000    -1.7113100000
| 17>  C        5.1289070000    -0.3051730000    -3.6983970000
| 18>  N        4.3394610000     0.9002330000    -3.9329310000
| 19>  H        1.4981080000    -1.1565480000    -1.2523970000
| 20>  H        2.3830930000    -2.2811470000    -0.1932790000
| 21>  H        1.6668050000    -2.8690190000    -1.7142770000
| 22>  H        3.4875960000     0.2320750000    -1.4794600000
| 23>  H        4.3149780000    -0.8762910000    -0.3721140000
| 24>  H        5.9680270000    -1.4279340000    -2.1016900000
| 25>  H        6.2253780000     0.5920060000    -0.7011860000
| 26>  H        5.6841070000     1.4667390000    -1.9802520000
| 27>  H        4.6733800000    -1.2109720000    -4.1136150000
| 28>  H        6.1046960000    -0.1725610000    -4.1714370000
| 29>  H        3.3500900000     0.6954710000    -3.8782470000
| 30>  H        4.5120910000     1.2682800000    -4.8579750000
| 31> *
| 32>
| 33>                          ****END OF INPUT****
 Total Charge           Charge          ....    0
 Multiplicity           Mult            ....    1
 Number of Electrons    NEL             ....   58
 Basis Dimension        Dim             ....  158

MULLIKEN ATOMIC CHARGES
-----------------------
   0 C :    0.150664
   1 O :   -0.347460
   2 C :    0.169139
   3 C :   -0.017595
   4 N :   -0.183841
   5 C :    0.076642
   6 N :   -0.226632
   7 H :    0.002190
   8 H :    0.004462
   9 H :    0.028754
  10 H :   -0.017640
  11 H :   -0.014460
  12 H :    0.003174
  13 H :    0.080202
  14 H :    0.084552
  15 H :    0.006500
  16 H :    0.010309
  17 H :    0.095972
  18 H :    0.095068
Sum of atomic charges:   -0.0000000

LOEWDIN ATOMIC CHARGES
----------------------
   0 C :    0.049606
   1 O :   -0.151244
   2 C :    0.039171
   3 C :   -0.019775
   4 N :   -0.090820
   5 C :    0.006810
   6 N :   -0.106287
   7 H :    0.003584
   8 H :    0.004992
   9 H :    0.021537
  10 H :   -0.003887
  11 H :   -0.000773
  12 H :    0.020881
  13 H :    0.045530
  14 H :    0.041435
  15 H :    0.007104
  16 H :    0.023332
  17 H :    0.053080
  18 H :    0.055725

  Mayer bond orders larger than 0.1
B(  0-C ,  1-O ) :   1.0207 B(  0-C ,  7-H ) :   0.9553 B(  0-C ,  8-H ) :   0.9559
B(  0-C ,  9-H ) :   0.9758 B(  1-O ,  2-C ) :   1.0140 B(  2-C ,  3-C ) :   1.0172
B(  2-C , 10-H ) :   0.9171 B(  2-C , 11-H ) :   0.9250 B(  3-C ,  4-N ) :   1.0830
B(  3-C ,  5-C ) :   1.0438 B(  3-C , 12-H ) :   0.9035 B(  4-N , 13-H ) :   0.9697
B(  4-N , 14-H ) :   0.9541 B(  5-C ,  6-N ) :   1.1003 B(  5-C , 15-H ) :   0.9367
B(  5-C , 16-H ) :   0.9367 B(  6-N , 17-H ) :   0.9687 B(  6-N , 18-H ) :   0.9664

FINAL SINGLE POINT ENERGY      -343.657621454892

DIPOLE MOMENT
-------------
                                X             Y             Z
Electronic contribution:      1.35071      -0.56671      -0.78135
Nuclear contribution   :     -2.08854       0.61570       0.83613
                        -----------------------------------------
Total Dipole Moment    :     -0.73783       0.04899       0.05477
                        -----------------------------------------
Magnitude (a.u.)       :      0.74148
Magnitude (Debye)      :      1.88469

                             ****ORCA TERMINATED NORMALLY****
TOTAL RUN TIME: 0 days 0 hours 0 minutes 7 seconds 920 msec
