                         Program Version 3.0.3 - RELEASE   -
|  1> ! RI PBE def2-SVP def2-SVP/J NBO PAL2
|  2> % maxcore 2000
|  3> % output
|  4>     # printlevel mini
|  5>     print[ P_Basis ] 0
|  6>     print[ P_SCFInfo ] 1
|  7>     print[ P_SCFIterInfo ] 1
|  8>     print[ P_OrbEn ] 0
|  9>     print[ P_Cartesian ] 0
| 10> end
| 11> *xyz 0 1
| 12>  C        1.5298330000     1.8080030000    -2.4560640000
| 13>  O        2.8797450000     1.4368830000    -2.3721940000
| 14>  C        3.0772200000     0.2800180000    -1.5996670000
| 15>  C        4.5483000000    -0.0530320000    -1.6034630000
| 16>  N        5.0076000000    -0.2539900000    -2.9513250000
| 17>  C        6.2599440000    -0.7159030000    -3.2359050000
| 18>  N        7.1390590000    -1.1981750000    -2.4546550000
| 19>  H        1.4724190000     2.7032830000    -3.0749260000
| 20>  H        1.1145690000     2.0333520000    -1.4645810000
| 21>  H        0.9228030000     1.0158440000    -2.9150230000
| 22>  H        2.5004180000    -0.5581490000    -2.0193880000
| 23>  H        2.7375910000     0.4419030000    -0.5663630000
| 24>  H        4.6925160000    -0.9719550000    -1.0259500000
| 25>  H        5.1089740000     0.7459250000    -1.0975590000
| 26>  H        4.5714070000     0.3362410000    -3.6412020000
| 27>  H        6.4869800000    -0.6743990000    -4.3035930000
| 28>  H        6.8363220000    -1.1808580000    -1.4819420000
| 29> *
| 30>
| 31>                          ****END OF INPUT****
 Total Charge           Charge          ....    0
 Multiplicity           Mult            ....    1
 Number of Electrons    NEL             ....   56
 Basis Dimension        Dim             ....  148

MULLIKEN ATOMIC CHARGES
-----------------------
   0 C :    0.144469
   1 O :   -0.360594
   2 C :    0.138146
   3 C :    0.104537
   4 N :   -0.155721
   5 C :   -0.018041
   6 N :   -0.161184
   7 H :    0.038029
   8 H :    0.010409
   9 H :    0.011753
  10 H :    0.001724
  11 H :    0.006256
  12 H :    0.023867
  13 H :    0.024881
  14 H :    0.117803
  15 H :    0.004802
  16 H :    0.068864
Sum of atomic charges:   -0.0000000

LOEWDIN ATOMIC CHARGES
----------------------
   0 C :    0.052240
   1 O :   -0.152298
   2 C :    0.056099
   3 C :    0.008825
   4 N :   -0.023684
   5 C :    0.008738
   6 N :   -0.174015
   7 H :    0.025625
   8 H :    0.008388
   9 H :    0.008094
  10 H :    0.007539
  11 H :    0.011877
  12 H :    0.029154
  13 H :    0.019212
  14 H :    0.068267
  15 H :    0.012421
  16 H :    0.033517

  Mayer bond orders larger than 0.1
B(  0-C ,  1-O ) :   1.0109 B(  0-C ,  7-H ) :   0.9762 B(  0-C ,  8-H ) :   0.9578
B(  0-C ,  9-H ) :   0.9571 B(  1-O ,  2-C ) :   1.0110 B(  2-C ,  3-C ) :   1.0901
B(  2-C , 10-H ) :   0.9200 B(  2-C , 11-H ) :   0.9253 B(  3-C ,  4-N ) :   1.0174
B(  3-C , 12-H ) :   0.9176 B(  3-C , 13-H ) :   0.9221 B(  4-N ,  5-C ) :   1.1835
B(  4-N ,  6-N ) :   0.1128 B(  4-N , 14-H ) :   0.9190 B(  5-C ,  6-N ) :   1.9829
B(  5-C , 15-H ) :   0.9456 B(  6-N , 16-H ) :   0.9532

FINAL SINGLE POINT ENERGY      -342.464098861890

DIPOLE MOMENT
-------------
                                X             Y             Z
Electronic contribution:      4.38442      -1.01432      -1.72591
Nuclear contribution   :     -6.05184       1.59937       1.99487
                        -----------------------------------------
Total Dipole Moment    :     -1.66743       0.58506       0.26896
                        -----------------------------------------
Magnitude (a.u.)       :      1.78744
Magnitude (Debye)      :      4.54332

                             ****ORCA TERMINATED NORMALLY****
TOTAL RUN TIME: 0 days 0 hours 0 minutes 7 seconds 521 msec
