                         Program Version 3.0.3 - RELEASE   -
|  1> ! RI PBE def2-SVP def2-SVP/J NBO PAL2
|  2> % maxcore 2000
|  3> % output
|  4>     # printlevel mini
|  5>     print[ P_Basis ] 0
|  6>     print[ P_SCFInfo ] 1
|  7>     print[ P_SCFIterInfo ] 1
|  8>     print[ P_OrbEn ] 0
|  9>     print[ P_Cartesian ] 0
| 10> end
| 11> *xyz 0 1
| 12>  C        3.7761480000     0.8608610000     0.8454550000
| 13>  O        2.7749840000     0.3269390000     0.0160690000
| 14>  C        3.1494690000    -0.6581120000    -0.8254190000
| 15>  C        4.3675510000    -1.1842830000    -0.9592720000
| 16>  N        4.6586840000    -2.2062190000    -1.8623950000
| 17>  C        5.8822420000    -2.7659160000    -2.0269920000
| 18>  O        6.1309470000    -3.6501030000    -2.8108910000
| 19>  H        3.3024350000     1.6328000000     1.4489500000
| 20>  H        4.5843800000     1.3064730000     0.2531400000
| 21>  H        4.1967190000     0.0910120000     1.5035580000
| 22>  H        2.3097010000    -1.0019960000    -1.4200420000
| 23>  H        5.2144700000    -0.8520380000    -0.3737250000
| 24>  H        3.9252820000    -2.5761100000    -2.4495110000
| 25>  H        6.6425880000    -2.3194000000    -1.3584260000
| 26> *
| 27>
| 28>                          ****END OF INPUT****
 Total Charge           Charge          ....    0
 Multiplicity           Mult            ....    1
 Number of Electrons    NEL             ....   54
 Basis Dimension        Dim             ....  133

MULLIKEN ATOMIC CHARGES
-----------------------
   0 C :    0.126678
   1 O :   -0.266685
   2 C :    0.109698
   3 C :   -0.011296
   4 N :   -0.059455
   5 C :    0.109385
   6 O :   -0.218056
   7 H :    0.043876
   8 H :    0.029740
   9 H :    0.028406
  10 H :    0.007521
  11 H :    0.007939
  12 H :    0.114572
  13 H :   -0.022324
Sum of atomic charges:   -0.0000000

LOEWDIN ATOMIC CHARGES
----------------------
   0 C :    0.059779
   1 O :   -0.066845
   2 C :   -0.008335
   3 C :   -0.071221
   4 N :    0.039513
   5 C :    0.047215
   6 O :   -0.176597
   7 H :    0.030185
   8 H :    0.015303
   9 H :    0.015051
  10 H :    0.022738
  11 H :    0.025840
  12 H :    0.083321
  13 H :   -0.015946

  Mayer bond orders larger than 0.1
B(  0-C ,  1-O ) :   0.9919 B(  0-C ,  7-H ) :   0.9722 B(  0-C ,  8-H ) :   0.9562
B(  0-C ,  9-H ) :   0.9563 B(  1-O ,  2-C ) :   1.1513 B(  1-O ,  3-C ) :   0.1019
B(  2-C ,  3-C ) :   1.6770 B(  2-C , 10-H ) :   0.9764 B(  3-C ,  4-N ) :   1.0733
B(  3-C , 11-H ) :   0.9504 B(  4-N ,  5-C ) :   1.1772 B(  4-N , 12-H ) :   0.9200
B(  5-C ,  6-O ) :   2.0591 B(  5-C , 13-H ) :   0.9189

FINAL SINGLE POINT ENERGY      -361.120542952419

DIPOLE MOMENT
-------------
                                X             Y             Z
Electronic contribution:      0.11021      -4.11612      -3.96545
Nuclear contribution   :     -0.55599       5.12336       4.80815
                        -----------------------------------------
Total Dipole Moment    :     -0.44579       1.00724       0.84270
                        -----------------------------------------
Magnitude (a.u.)       :      1.38687
Magnitude (Debye)      :      3.52514

                             ****ORCA TERMINATED NORMALLY****
TOTAL RUN TIME: 0 days 0 hours 0 minutes 6 seconds 386 msec
