                         Program Version 3.0.3 - RELEASE   -
|  1> ! RI PBE def2-SVP def2-SVP/J NBO PAL2
|  2> % maxcore 2000
|  3> % output
|  4>     # printlevel mini
|  5>     print[ P_Basis ] 0
|  6>     print[ P_SCFInfo ] 1
|  7>     print[ P_SCFIterInfo ] 1
|  8>     print[ P_OrbEn ] 0
|  9>     print[ P_Cartesian ] 0
| 10> end
| 11> *xyz 0 1
| 12>  C        1.3499790000     0.1418350000     0.1596930000
| 13>  O        2.7354460000    -0.0489550000     0.3257880000
| 14>  C        3.1239010000    -1.1449830000     1.0175500000
| 15>  C        2.3346210000    -2.0695830000     1.5623220000
| 16>  N        4.5185420000    -1.1244410000     1.0532760000
| 17>  C        5.3646350000    -2.0173640000     1.6351260000
| 18>  O        5.0527630000    -3.0118250000     2.2396470000
| 19>  H        1.2364050000     1.0604960000    -0.4126870000
| 20>  H        0.8494940000     0.2469540000     1.1271730000
| 21>  H        0.9020950000    -0.6917680000    -0.3899060000
| 22>  H        1.2614380000    -1.9960480000     1.4795230000
| 23>  H        2.7744680000    -2.8988650000     2.0907940000
| 24>  H        4.9338970000    -0.3375020000     0.5807580000
| 25>  H        6.4181250000    -1.7158590000     1.4851340000
| 26> *
| 27>
| 28>                          ****END OF INPUT****
 Total Charge           Charge          ....    0
 Multiplicity           Mult            ....    1
 Number of Electrons    NEL             ....   54
 Basis Dimension        Dim             ....  133

MULLIKEN ATOMIC CHARGES
-----------------------
   0 C :    0.133219
   1 O :   -0.282084
   2 C :    0.122671
   3 C :   -0.130754
   4 N :   -0.045785
   5 C :    0.132958
   6 O :   -0.206378
   7 H :    0.041075
   8 H :    0.037540
   9 H :    0.038329
  10 H :    0.010647
  11 H :    0.039118
  12 H :    0.123360
  13 H :   -0.013914
Sum of atomic charges:   -0.0000000

LOEWDIN ATOMIC CHARGES
----------------------
   0 C :    0.066329
   1 O :   -0.083063
   2 C :    0.054666
   3 C :   -0.172166
   4 N :    0.027889
   5 C :    0.059340
   6 O :   -0.154106
   7 H :    0.029064
   8 H :    0.019627
   9 H :    0.019485
  10 H :    0.025323
  11 H :    0.034224
  12 H :    0.084968
  13 H :   -0.011582

  Mayer bond orders larger than 0.1
B(  0-C ,  1-O ) :   0.9760 B(  0-C ,  7-H ) :   0.9726 B(  0-C ,  8-H ) :   0.9608
B(  0-C ,  9-H ) :   0.9613 B(  1-O ,  2-C ) :   1.1474 B(  2-C ,  3-C ) :   1.8469
B(  2-C ,  4-N ) :   1.0511 B(  3-C , 10-H ) :   0.9246 B(  3-C , 11-H ) :   0.8969
B(  4-N ,  5-C ) :   1.1800 B(  4-N , 12-H ) :   0.9046 B(  5-C ,  6-O ) :   2.0324
B(  5-C , 13-H ) :   0.9254

FINAL SINGLE POINT ENERGY      -361.127871865854

DIPOLE MOMENT
-------------
                                X             Y             Z
Electronic contribution:      5.32922      -1.41544       1.05699
Nuclear contribution   :     -5.64734       2.64293      -1.83126
                        -----------------------------------------
Total Dipole Moment    :     -0.31812       1.22748      -0.77427
                        -----------------------------------------
Magnitude (a.u.)       :      1.48574
Magnitude (Debye)      :      3.77644

                             ****ORCA TERMINATED NORMALLY****
TOTAL RUN TIME: 0 days 0 hours 0 minutes 6 seconds 561 msec
