                         Program Version 3.0.3 - RELEASE   -
|  1> ! RI PBE def2-SVP def2-SVP/J NBO PAL2
|  2> % maxcore 2000
|  3> % output
|  4>     # printlevel mini
|  5>     print[ P_Basis ] 0
|  6>     print[ P_SCFInfo ] 1
|  7>     print[ P_SCFIterInfo ] 1
|  8>     print[ P_OrbEn ] 0
|  9>     print[ P_Cartesian ] 0
| 10> end
| 11> *xyz 0 1
| 12>  C        2.7964140000     0.3932780000     0.5483620000
| 13>  O        2.2782090000     0.1914040000    -0.7330080000
| 14>  C        3.1832690000     0.0048100000    -1.7482840000
| 15>  C        2.5669360000    -0.1954960000    -3.0307920000
| 16>  O        3.1730820000    -0.3813240000    -4.0787940000
| 17>  C        4.5381920000     0.0029310000    -1.5955900000
| 18>  N        5.4057220000    -0.1824850000    -2.6079990000
| 19>  H        1.9447510000     0.5209210000     1.2151720000
| 20>  H        3.4245160000     1.2936650000     0.5957840000
| 21>  H        3.3890360000    -0.4676320000     0.8876100000
| 22>  H        1.4603570000    -0.1709430000    -3.0152610000
| 23>  H        4.9816740000     0.1561150000    -0.6185610000
| 24>  H        5.0225820000    -0.3284560000    -3.5332760000
| 25>  H        6.3924590000    -0.1749990000    -2.4431750000
| 26> *
| 27>
| 28>                          ****END OF INPUT****
 Total Charge           Charge          ....    0
 Multiplicity           Mult            ....    1
 Number of Electrons    NEL             ....   54
 Basis Dimension        Dim             ....  133

MULLIKEN ATOMIC CHARGES
-----------------------
   0 C :    0.137308
   1 O :   -0.288383
   2 C :    0.073710
   3 C :    0.123062
   4 O :   -0.240241
   5 C :   -0.065923
   6 N :   -0.036076
   7 H :    0.039598
   8 H :    0.015817
   9 H :    0.018091
  10 H :   -0.017772
  11 H :   -0.004504
  12 H :    0.126741
  13 H :    0.118572
Sum of atomic charges:   -0.0000000

LOEWDIN ATOMIC CHARGES
----------------------
   0 C :    0.053082
   1 O :   -0.089824
   2 C :   -0.092369
   3 C :    0.057717
   4 O :   -0.172975
   5 C :   -0.003842
   6 N :    0.048222
   7 H :    0.028585
   8 H :    0.007873
   9 H :    0.008271
  10 H :   -0.004846
  11 H :    0.025682
  12 H :    0.060703
  13 H :    0.073720

  Mayer bond orders larger than 0.1
B(  0-C ,  1-O ) :   1.0147 B(  0-C ,  7-H ) :   0.9708 B(  0-C ,  8-H ) :   0.9498
B(  0-C ,  9-H ) :   0.9508 B(  1-O ,  2-C ) :   1.0829 B(  2-C ,  3-C ) :   1.1293
B(  2-C ,  5-C ) :   1.4566 B(  3-C ,  4-O ) :   1.9579 B(  3-C , 10-H ) :   0.9316
B(  4-O , 12-H ) :   0.1224 B(  5-C ,  6-N ) :   1.3515 B(  5-C , 11-H ) :   0.9442
B(  6-N , 12-H ) :   0.8979 B(  6-N , 13-H ) :   0.9459

FINAL SINGLE POINT ENERGY      -361.115019137692

DIPOLE MOMENT
-------------
                                X             Y             Z
Electronic contribution:     -1.32496      -0.76129      -4.76127
Nuclear contribution   :      2.42566       0.92322       5.86749
                        -----------------------------------------
Total Dipole Moment    :      1.10071       0.16192       1.10622
                        -----------------------------------------
Magnitude (a.u.)       :      1.56891
Magnitude (Debye)      :      3.98786

                             ****ORCA TERMINATED NORMALLY****
TOTAL RUN TIME: 0 days 0 hours 0 minutes 6 seconds 596 msec
