                         Program Version 3.0.3 - RELEASE   -
|  1> ! RI PBE def2-SVP def2-SVP/J NBO PAL2
|  2> % maxcore 2000
|  3> % output
|  4>     # printlevel mini
|  5>     print[ P_Basis ] 0
|  6>     print[ P_SCFInfo ] 1
|  7>     print[ P_SCFIterInfo ] 1
|  8>     print[ P_OrbEn ] 0
|  9>     print[ P_Cartesian ] 0
| 10> end
| 11> *xyz 0 1
| 12>  C        3.0680760000    -2.9702000000    -0.8458330000
| 13>  O        4.0467770000    -2.8535000000     0.1622700000
| 14>  C        3.6448350000    -2.1610270000     1.3281260000
| 15>  C        2.9794580000    -3.0626700000     2.3547880000
| 16>  N        1.6334960000    -3.4498440000     1.9588990000
| 17>  C        4.9123290000    -1.5390980000     1.8900740000
| 18>  O        5.5749550000    -0.7624980000     0.9278290000
| 19>  H        3.5514920000    -3.4422100000    -1.7023760000
| 20>  H        2.6991980000    -1.9811930000    -1.1501490000
| 21>  H        2.2230700000    -3.5783420000    -0.5153010000
| 22>  H        2.9563630000    -1.3490010000     1.0424840000
| 23>  H        3.0219680000    -2.5548730000     3.3326560000
| 24>  H        3.5863300000    -3.9686070000     2.4388850000
| 25>  H        1.0057580000    -2.6565610000     2.0136740000
| 26>  H        1.2675150000    -4.1569570000     2.5833960000
| 27>  H        5.5633570000    -2.3414390000     2.2707280000
| 28>  H        4.6644660000    -0.8828030000     2.7274710000
| 29>  H        5.5888480000    -1.3032760000     0.1292700000
| 30> *
| 31>
| 32>                          ****END OF INPUT****
 Total Charge           Charge          ....    0
 Multiplicity           Mult            ....    1
 Number of Electrons    NEL             ....   58
 Basis Dimension        Dim             ....  153

MULLIKEN ATOMIC CHARGES
-----------------------
   0 C :    0.151001
   1 O :   -0.363170
   2 C :    0.020557
   3 C :    0.092666
   4 N :   -0.201486
   5 C :    0.208345
   6 O :   -0.280538
   7 H :    0.024415
   8 H :    0.000181
   9 H :    0.024178
  10 H :   -0.012788
  11 H :   -0.008119
  12 H :    0.010769
  13 H :    0.091524
  14 H :    0.093956
  15 H :   -0.005372
  16 H :    0.006803
  17 H :    0.147076
Sum of atomic charges:    0.0000000

LOEWDIN ATOMIC CHARGES
----------------------
   0 C :    0.049702
   1 O :   -0.144923
   2 C :    0.020394
   3 C :   -0.005349
   4 N :   -0.100633
   5 C :    0.045994
   6 O :   -0.120700
   7 H :    0.019588
   8 H :    0.004186
   9 H :    0.006758
  10 H :    0.006163
  11 H :    0.003981
  12 H :    0.025795
  13 H :    0.052033
  14 H :    0.055515
  15 H :    0.005151
  16 H :    0.020301
  17 H :    0.056045

  Mayer bond orders larger than 0.1
B(  0-C ,  1-O ) :   0.9875 B(  0-C ,  7-H ) :   0.9737 B(  0-C ,  8-H ) :   0.9563
B(  0-C ,  9-H ) :   0.9540 B(  1-O ,  2-C ) :   1.0010 B(  2-C ,  3-C ) :   1.0311
B(  2-C ,  5-C ) :   1.0290 B(  2-C , 10-H ) :   0.8980 B(  3-C ,  4-N ) :   1.1053
B(  3-C , 11-H ) :   0.9261 B(  3-C , 12-H ) :   0.9110 B(  4-N , 13-H ) :   0.9677
B(  4-N , 14-H ) :   0.9640 B(  5-C ,  6-O ) :   1.0991 B(  5-C , 15-H ) :   0.9206
B(  5-C , 16-H ) :   0.9277 B(  6-O , 17-H ) :   0.9665

FINAL SINGLE POINT ENERGY      -363.498345504830

DIPOLE MOMENT
-------------
                                X             Y             Z
Electronic contribution:      3.30838       1.39575      -0.69745
Nuclear contribution   :     -4.23265      -1.77113       1.06357
                        -----------------------------------------
Total Dipole Moment    :     -0.92427      -0.37538       0.36612
                        -----------------------------------------
Magnitude (a.u.)       :      1.06265
Magnitude (Debye)      :      2.70105

                             ****ORCA TERMINATED NORMALLY****
TOTAL RUN TIME: 0 days 0 hours 0 minutes 6 seconds 818 msec
