                         Program Version 3.0.3 - RELEASE   -
|  1> ! RI PBE def2-SVP def2-SVP/J NBO PAL2
|  2> % maxcore 2000
|  3> % output
|  4>     # printlevel mini
|  5>     print[ P_Basis ] 0
|  6>     print[ P_SCFInfo ] 1
|  7>     print[ P_SCFIterInfo ] 1
|  8>     print[ P_OrbEn ] 0
|  9>     print[ P_Cartesian ] 0
| 10> end
| 11> *xyz 0 1
| 12>  C        4.5495670000     2.4198230000     2.3227880000
| 13>  O        5.0278860000     1.1461800000     2.6563890000
| 14>  C        4.7259030000     0.1804160000     1.6748590000
| 15>  C        5.3976600000    -1.1252500000     2.0417030000
| 16>  N        6.8369900000    -0.9865400000     1.8881400000
| 17>  C        5.0009610000    -1.5999370000     3.4412780000
| 18>  O        3.6074200000    -1.7208080000     3.6312240000
| 19>  H        4.8172120000     3.0979340000     3.1336690000
| 20>  H        3.4568100000     2.4218410000     2.2034410000
| 21>  H        4.9979520000     2.7849490000     1.3890050000
| 22>  H        3.6372690000     0.0411010000     1.6017580000
| 23>  H        5.0935460000     0.5066460000     0.6924370000
| 24>  H        5.0458430000    -1.8667580000     1.3149140000
| 25>  H        7.3108070000    -1.8451170000     2.1416110000
| 26>  H        7.1755930000    -0.2605890000     2.5096750000
| 27>  H        5.4468100000    -0.9256820000     4.1827620000
| 28>  H        5.4229410000    -2.5958210000     3.6065470000
| 29>  H        3.2555110000    -0.8414670000     3.7890800000
| 30> *
| 31>
| 32>                          ****END OF INPUT****
 Total Charge           Charge          ....    0
 Multiplicity           Mult            ....    1
 Number of Electrons    NEL             ....   58
 Basis Dimension        Dim             ....  153

MULLIKEN ATOMIC CHARGES
-----------------------
   0 C :    0.145027
   1 O :   -0.362073
   2 C :    0.153809
   3 C :   -0.035336
   4 N :   -0.182024
   5 C :    0.171935
   6 O :   -0.283852
   7 H :    0.035050
   8 H :    0.004494
   9 H :    0.010735
  10 H :   -0.003574
  11 H :    0.003458
  12 H :    0.009022
  13 H :    0.085918
  14 H :    0.089688
  15 H :   -0.000954
  16 H :    0.000277
  17 H :    0.158399
Sum of atomic charges:   -0.0000000

LOEWDIN ATOMIC CHARGES
----------------------
   0 C :    0.049459
   1 O :   -0.155026
   2 C :    0.053318
   3 C :   -0.034448
   4 N :   -0.088571
   5 C :    0.036946
   6 O :   -0.119911
   7 H :    0.023207
   8 H :    0.005144
   9 H :    0.008427
  10 H :    0.001037
  11 H :    0.010195
  12 H :    0.027921
  13 H :    0.050446
  14 H :    0.048201
  15 H :    0.002720
  16 H :    0.014166
  17 H :    0.066770

  Mayer bond orders larger than 0.1
B(  0-C ,  1-O ) :   1.0180 B(  0-C ,  7-H ) :   0.9759 B(  0-C ,  8-H ) :   0.9549
B(  0-C ,  9-H ) :   0.9572 B(  1-O ,  2-C ) :   1.0041 B(  2-C ,  3-C ) :   1.0475
B(  2-C , 10-H ) :   0.9195 B(  2-C , 11-H ) :   0.9229 B(  3-C ,  4-N ) :   1.0789
B(  3-C ,  5-C ) :   0.9890 B(  3-C , 12-H ) :   0.8932 B(  4-N , 13-H ) :   0.9688
B(  4-N , 14-H ) :   0.9663 B(  5-C ,  6-O ) :   1.0735 B(  5-C , 15-H ) :   0.9374
B(  5-C , 16-H ) :   0.9400 B(  6-O , 17-H ) :   0.9838

FINAL SINGLE POINT ENERGY      -363.498064201846

DIPOLE MOMENT
-------------
                                X             Y             Z
Electronic contribution:     -0.51266      -2.24079       1.42791
Nuclear contribution   :      0.54558       2.83408      -1.33924
                        -----------------------------------------
Total Dipole Moment    :      0.03292       0.59329       0.08867
                        -----------------------------------------
Magnitude (a.u.)       :      0.60078
Magnitude (Debye)      :      1.52707

                             ****ORCA TERMINATED NORMALLY****
TOTAL RUN TIME: 0 days 0 hours 0 minutes 7 seconds 858 msec
