                         Program Version 3.0.3 - RELEASE   -
|  1> ! RI PBE def2-SVP def2-SVP/J NBO PAL2
|  2> % maxcore 2000
|  3> % output
|  4>     # printlevel mini
|  5>     print[ P_Basis ] 0
|  6>     print[ P_SCFInfo ] 1
|  7>     print[ P_SCFIterInfo ] 1
|  8>     print[ P_OrbEn ] 0
|  9>     print[ P_Cartesian ] 0
| 10> end
| 11> *xyz 0 1
| 12>  C        2.0604220000    -1.0773450000    -0.6018540000
| 13>  O        3.2026990000    -0.3370290000    -0.2662610000
| 14>  C        3.0306900000     1.0452420000    -0.4584810000
| 15>  C        4.3288150000     1.7336580000    -0.1145420000
| 16>  N        5.4087410000     1.2739380000    -0.9509760000
| 17>  C        6.1739020000     2.1005160000    -1.6936360000
| 18>  O        6.0744100000     3.3062440000    -1.7302180000
| 19>  H        2.2853210000    -2.1293510000    -0.4258710000
| 20>  H        1.7888570000    -0.9415410000    -1.6575700000
| 21>  H        1.1999160000    -0.7893460000     0.0171190000
| 22>  H        2.2251050000     1.4272020000     0.1864690000
| 23>  H        2.7565870000     1.2532740000    -1.5035570000
| 24>  H        4.5643870000     1.5550620000     0.9401730000
| 25>  H        4.2391660000     2.8102090000    -0.2652240000
| 26>  H        5.5594420000     0.2813790000    -1.0182220000
| 27>  H        6.9291530000     1.5485960000    -2.2843480000
| 28> *
| 29>
| 30>                          ****END OF INPUT****
 Total Charge           Charge          ....    0
 Multiplicity           Mult            ....    1
 Number of Electrons    NEL             ....   56
 Basis Dimension        Dim             ....  143

MULLIKEN ATOMIC CHARGES
-----------------------
   0 C :    0.144734
   1 O :   -0.364294
   2 C :    0.145073
   3 C :    0.114832
   4 N :   -0.147115
   5 C :    0.122791
   6 O :   -0.240507
   7 H :    0.037444
   8 H :    0.008314
   9 H :    0.009913
  10 H :    0.006253
  11 H :   -0.000776
  12 H :    0.031219
  13 H :    0.039703
  14 H :    0.116685
  15 H :   -0.024269
Sum of atomic charges:    0.0000000

LOEWDIN ATOMIC CHARGES
----------------------
   0 C :    0.051319
   1 O :   -0.157963
   2 C :    0.053412
   3 C :    0.015501
   4 N :    0.004592
   5 C :    0.044160
   6 O :   -0.191375
   7 H :    0.024646
   8 H :    0.007264
   9 H :    0.007907
  10 H :    0.010832
  11 H :    0.007503
  12 H :    0.027786
  13 H :    0.038770
  14 H :    0.071741
  15 H :   -0.016097

  Mayer bond orders larger than 0.1
B(  0-C ,  1-O ) :   1.0127 B(  0-C ,  7-H ) :   0.9767 B(  0-C ,  8-H ) :   0.9565
B(  0-C ,  9-H ) :   0.9582 B(  1-O ,  2-C ) :   1.0090 B(  2-C ,  3-C ) :   1.0942
B(  2-C , 10-H ) :   0.9261 B(  2-C , 11-H ) :   0.9213 B(  3-C ,  4-N ) :   0.9860
B(  3-C , 12-H ) :   0.9315 B(  3-C , 13-H ) :   0.9146 B(  4-N ,  5-C ) :   1.2333
B(  4-N ,  6-O ) :   0.1077 B(  4-N , 14-H ) :   0.9240 B(  5-C ,  6-O ) :   2.0087
B(  5-C , 15-H ) :   0.9242

FINAL SINGLE POINT ENERGY      -362.333930150198

DIPOLE MOMENT
-------------
                                X             Y             Z
Electronic contribution:      5.87451       3.54233      -1.12347
Nuclear contribution   :     -6.68245      -4.78708       1.37829
                        -----------------------------------------
Total Dipole Moment    :     -0.80794      -1.24474       0.25482
                        -----------------------------------------
Magnitude (a.u.)       :      1.50568
Magnitude (Debye)      :      3.82714

                             ****ORCA TERMINATED NORMALLY****
TOTAL RUN TIME: 0 days 0 hours 0 minutes 6 seconds 653 msec
