                         Program Version 3.0.3 - RELEASE   -
|  1> ! RI PBE def2-SVP def2-SVP/J NBO PAL2
|  2> % maxcore 2000
|  3> % output
|  4>     # printlevel mini
|  5>     print[ P_Basis ] 0
|  6>     print[ P_SCFInfo ] 1
|  7>     print[ P_SCFIterInfo ] 1
|  8>     print[ P_OrbEn ] 0
|  9>     print[ P_Cartesian ] 0
| 10> end
| 11> *xyz 0 1
| 12>  C        1.7969660000     0.1786550000    -0.3419290000
| 13>  O        1.3698820000    -0.4334030000     0.8682040000
| 14>  C        2.3157980000    -0.7987790000     1.7307840000
| 15>  C        1.7642430000    -1.4289340000     2.9637320000
| 16>  N        3.5456300000    -0.5898000000     1.4441670000
| 17>  N        4.3991670000    -1.0255130000     2.4408280000
| 18>  C        5.6224360000    -0.8274160000     2.1761690000
| 19>  H        0.8853960000     0.3959050000    -0.8954190000
| 20>  H        2.4410600000    -0.4956070000    -0.9086460000
| 21>  H        2.3509330000     1.0958150000    -0.1355520000
| 22>  H        0.6778860000    -1.4637340000     2.9082020000
| 23>  H        2.0759450000    -0.8644680000     3.8431040000
| 24>  H        2.1653360000    -2.4362760000     3.0797370000
| 25>  H        6.3577500000    -1.1421170000     2.9099750000
| 26>  H        5.9487810000    -0.3571380000     1.2464620000
| 27> *
| 28>
| 29>                          ****END OF INPUT****
 Total Charge           Charge          ....    0
 Multiplicity           Mult            ....    1
 Number of Electrons    NEL             ....   54
 Basis Dimension        Dim             ....  138

MULLIKEN ATOMIC CHARGES
-----------------------
   0 C :    0.153363
   1 O :   -0.243657
   2 C :   -0.009449
   3 C :    0.078656
   4 N :   -0.163395
   5 N :   -0.110428
   6 C :    0.008650
   7 H :    0.036010
   8 H :    0.034447
   9 H :    0.032799
  10 H :    0.031516
  11 H :    0.049276
  12 H :    0.049868
  13 H :    0.039646
  14 H :    0.012697
Sum of atomic charges:   -0.0000000

LOEWDIN ATOMIC CHARGES
----------------------
   0 C :    0.063263
   1 O :   -0.045325
   2 C :    0.029313
   3 C :   -0.077393
   4 N :   -0.131841
   5 N :   -0.039894
   6 C :   -0.015589
   7 H :    0.023494
   8 H :    0.022292
   9 H :    0.022154
  10 H :    0.036437
  11 H :    0.050602
  12 H :    0.051014
  13 H :    0.016749
  14 H :   -0.005277

  Mayer bond orders larger than 0.1
B(  0-C ,  1-O ) :   0.9454 B(  0-C ,  7-H ) :   0.9708 B(  0-C ,  8-H ) :   0.9667
B(  0-C ,  9-H ) :   0.9662 B(  1-O ,  2-C ) :   1.2389 B(  2-C ,  3-C ) :   1.0823
B(  2-C ,  4-N ) :   1.6834 B(  3-C , 10-H ) :   0.9376 B(  3-C , 11-H ) :   0.9337
B(  3-C , 12-H ) :   0.9327 B(  4-N ,  5-N ) :   1.0258 B(  5-N ,  6-C ) :   1.9246
B(  6-C , 13-H ) :   0.9518 B(  6-C , 14-H ) :   0.9260

FINAL SINGLE POINT ENERGY      -341.244556332680

DIPOLE MOMENT
-------------
                                X             Y             Z
Electronic contribution:      0.39795      -0.15805       0.36540
Nuclear contribution   :     -0.59438       0.26450      -0.61302
                        -----------------------------------------
Total Dipole Moment    :     -0.19642       0.10645      -0.24762
                        -----------------------------------------
Magnitude (a.u.)       :      0.33351
Magnitude (Debye)      :      0.84771

                             ****ORCA TERMINATED NORMALLY****
TOTAL RUN TIME: 0 days 0 hours 0 minutes 6 seconds 773 msec
