                         Program Version 3.0.3 - RELEASE   -
|  1> ! RI PBE def2-SVP def2-SVP/J NBO PAL2
|  2> % maxcore 2000
|  3> % output
|  4>     # printlevel mini
|  5>     print[ P_Basis ] 0
|  6>     print[ P_SCFInfo ] 1
|  7>     print[ P_SCFIterInfo ] 1
|  8>     print[ P_OrbEn ] 0
|  9>     print[ P_Cartesian ] 0
| 10> end
| 11> *xyz 0 1
| 12>  C        4.1484170000     0.7936200000    -0.7303440000
| 13>  O        3.3984020000    -0.3544840000    -0.4182550000
| 14>  C        3.3268100000    -0.6023530000     0.9615580000
| 15>  C        4.6234490000    -1.0887600000     1.5224230000
| 16>  N        5.0650860000    -0.6413150000     2.6245070000
| 17>  N        6.2636740000    -1.2508890000     2.9981770000
| 18>  C        6.6203450000    -0.9270590000     4.1691700000
| 19>  H        4.1184020000     0.9117370000    -1.8132870000
| 20>  H        5.1945040000     0.7033190000    -0.4114230000
| 21>  H        3.7196200000     1.6883970000    -0.2595680000
| 22>  H        2.5730570000    -1.3871680000     1.0891420000
| 23>  H        2.9974630000     0.2826190000     1.5218800000
| 24>  H        5.1726350000    -1.8527350000     0.9636510000
| 25>  H        7.5451140000    -1.3470960000     4.5531350000
| 26>  H        6.0303320000    -0.2503320000     4.7899350000
| 27> *
| 28>
| 29>                          ****END OF INPUT****
 Total Charge           Charge          ....    0
 Multiplicity           Mult            ....    1
 Number of Electrons    NEL             ....   54
 Basis Dimension        Dim             ....  138

MULLIKEN ATOMIC CHARGES
-----------------------
   0 C :    0.133835
   1 O :   -0.348024
   2 C :    0.267162
   3 C :   -0.085848
   4 N :   -0.089750
   5 N :   -0.106479
   6 C :    0.030667
   7 H :    0.039972
   8 H :    0.022919
   9 H :    0.005907
  10 H :    0.038969
  11 H :    0.002194
  12 H :    0.012622
  13 H :    0.048189
  14 H :    0.027666
Sum of atomic charges:    0.0000000

LOEWDIN ATOMIC CHARGES
----------------------
   0 C :    0.050507
   1 O :   -0.144502
   2 C :    0.045889
   3 C :    0.003926
   4 N :   -0.053734
   5 N :   -0.041529
   6 C :    0.014221
   7 H :    0.025853
   8 H :    0.008082
   9 H :    0.008062
  10 H :    0.039836
  11 H :    0.014197
  12 H :    0.005964
  13 H :    0.022000
  14 H :    0.001229

  Mayer bond orders larger than 0.1
B(  0-C ,  1-O ) :   1.0114 B(  0-C ,  7-H ) :   0.9771 B(  0-C ,  8-H ) :   0.9557
B(  0-C ,  9-H ) :   0.9533 B(  1-O ,  2-C ) :   1.0335 B(  2-C ,  3-C ) :   1.0038
B(  2-C , 10-H ) :   0.9148 B(  2-C , 11-H ) :   0.9173 B(  3-C ,  4-N ) :   1.8619
B(  3-C ,  6-C ) :   0.1113 B(  3-C , 12-H ) :   0.9348 B(  4-N ,  5-N ) :   0.9763
B(  5-N ,  6-C ) :   1.9274 B(  6-C , 13-H ) :   0.9508 B(  6-C , 14-H ) :   0.9261

FINAL SINGLE POINT ENERGY      -341.210608241534

DIPOLE MOMENT
-------------
                                X             Y             Z
Electronic contribution:      0.69005      -2.72987       1.98172
Nuclear contribution   :     -0.61584       2.97403      -1.74986
                        -----------------------------------------
Total Dipole Moment    :      0.07421       0.24416       0.23185
                        -----------------------------------------
Magnitude (a.u.)       :      0.34479
Magnitude (Debye)      :      0.87638

                             ****ORCA TERMINATED NORMALLY****
TOTAL RUN TIME: 0 days 0 hours 0 minutes 6 seconds 632 msec
