                         Program Version 3.0.3 - RELEASE   -
|  1> ! RI PBE def2-SVP def2-SVP/J NBO PAL2
|  2> % maxcore 2000
|  3> % output
|  4>     # printlevel mini
|  5>     print[ P_Basis ] 0
|  6>     print[ P_SCFInfo ] 1
|  7>     print[ P_SCFIterInfo ] 1
|  8>     print[ P_OrbEn ] 0
|  9>     print[ P_Cartesian ] 0
| 10> end
| 11> *xyz 0 1
| 12>  C        1.2143830000    -1.3059590000    -0.6314990000
| 13>  O        2.5444090000    -0.9371540000    -0.3990980000
| 14>  C        3.4521490000    -1.9394990000    -0.7723910000
| 15>  C        4.8467440000    -1.4521080000    -0.4407080000
| 16>  N        5.8416940000    -2.4422340000    -0.7862780000
| 17>  N        5.8847290000    -3.5216990000     0.0141140000
| 18>  C        6.9410770000    -4.2240920000     0.0536580000
| 19>  H        0.5811570000    -0.4769370000    -0.3141550000
| 20>  H        0.9392970000    -2.2035480000    -0.0601570000
| 21>  H        1.0306980000    -1.5060840000    -1.6966590000
| 22>  H        3.3797660000    -2.1541420000    -1.8495180000
| 23>  H        3.2488670000    -2.8744790000    -0.2319610000
| 24>  H        4.8887050000    -1.1750070000     0.6201350000
| 25>  H        5.0594040000    -0.5548840000    -1.0267140000
| 26>  H        6.7449040000    -2.0645810000    -1.0544070000
| 27>  H        6.9384510000    -5.1129560000     0.6723610000
| 28>  H        7.8442570000    -3.9781260000    -0.5149230000
| 29> *
| 30>
| 31>                          ****END OF INPUT****
 Total Charge           Charge          ....    0
 Multiplicity           Mult            ....    1
 Number of Electrons    NEL             ....   56
 Basis Dimension        Dim             ....  148

MULLIKEN ATOMIC CHARGES
-----------------------
   0 C :    0.149013
   1 O :   -0.350322
   2 C :    0.170780
   3 C :    0.108056
   4 N :   -0.133254
   5 N :   -0.080641
   6 C :   -0.056292
   7 H :    0.031615
   8 H :    0.005616
   9 H :    0.002229
  10 H :   -0.011132
  11 H :    0.006779
  12 H :    0.014136
  13 H :    0.011337
  14 H :    0.090557
  15 H :    0.041674
  16 H :   -0.000148
Sum of atomic charges:   -0.0000000

LOEWDIN ATOMIC CHARGES
----------------------
   0 C :    0.050406
   1 O :   -0.150514
   2 C :    0.053975
   3 C :    0.004607
   4 N :    0.008007
   5 N :   -0.026072
   6 C :   -0.076967
   7 H :    0.022367
   8 H :    0.005724
   9 H :    0.004326
  10 H :    0.002796
  11 H :    0.007089
  12 H :    0.015122
  13 H :    0.026235
  14 H :    0.044400
  15 H :    0.018684
  16 H :   -0.010184

  Mayer bond orders larger than 0.1
B(  0-C ,  1-O ) :   1.0206 B(  0-C ,  7-H ) :   0.9764 B(  0-C ,  8-H ) :   0.9567
B(  0-C ,  9-H ) :   0.9557 B(  1-O ,  2-C ) :   1.0315 B(  2-C ,  3-C ) :   1.0716
B(  2-C , 10-H ) :   0.9189 B(  2-C , 11-H ) :   0.9287 B(  3-C ,  4-N ) :   1.0299
B(  3-C , 12-H ) :   0.9287 B(  3-C , 13-H ) :   0.9305 B(  4-N ,  5-N ) :   1.0966
B(  4-N ,  6-C ) :   0.1462 B(  4-N , 14-H ) :   0.9194 B(  5-N ,  6-C ) :   1.8883
B(  6-C , 15-H ) :   0.9576 B(  6-C , 16-H ) :   0.9274

FINAL SINGLE POINT ENERGY      -342.423577209267

DIPOLE MOMENT
-------------
                                X             Y             Z
Electronic contribution:      2.89545      -0.07261       0.72235
Nuclear contribution   :     -2.61218       0.21624      -1.05664
                        -----------------------------------------
Total Dipole Moment    :      0.28328       0.14363      -0.33429
                        -----------------------------------------
Magnitude (a.u.)       :      0.46111
Magnitude (Debye)      :      1.17204

                             ****ORCA TERMINATED NORMALLY****
TOTAL RUN TIME: 0 days 0 hours 0 minutes 7 seconds 456 msec
