                         Program Version 3.0.3 - RELEASE   -
|  1> ! RI PBE def2-SVP def2-SVP/J NBO PAL2
|  2> % maxcore 2000
|  3> % output
|  4>     # printlevel mini
|  5>     print[ P_Basis ] 0
|  6>     print[ P_SCFInfo ] 1
|  7>     print[ P_SCFIterInfo ] 1
|  8>     print[ P_OrbEn ] 0
|  9>     print[ P_Cartesian ] 0
| 10> end
| 11> *xyz 0 1
| 12>  C        4.0327370000    -0.4007190000    -0.6438150000
| 13>  O        3.2218990000    -1.1452670000     0.2348850000
| 14>  C        3.2050060000    -0.6493720000     1.5363890000
| 15>  C        2.0852500000    -1.3548910000     2.2748330000
| 16>  N        1.9754430000    -0.8104890000     3.6139530000
| 17>  O        4.4535400000    -0.7739100000     2.1754630000
| 18>  C        4.9402130000    -2.0916580000     2.3077360000
| 19>  H        3.9395240000    -0.8565820000    -1.6292730000
| 20>  H        5.0832650000    -0.4145180000    -0.3367770000
| 21>  H        3.6981580000     0.6430930000    -0.6992010000
| 22>  H        3.0242090000     0.4337240000     1.5394020000
| 23>  H        2.2616750000    -2.4398580000     2.2235040000
| 24>  H        1.1605950000    -1.1586040000     1.7267020000
| 25>  H        2.8662360000    -0.8723190000     4.0914730000
| 26>  H        1.2938620000    -1.3197040000     4.1598180000
| 27>  H        5.9859930000    -2.0084840000     2.6039630000
| 28>  H        4.8774320000    -2.6438730000     1.3654160000
| 29>  H        4.4037730000    -2.6540680000     3.0817390000
| 30> *
| 31>
| 32>                          ****END OF INPUT****
 Total Charge           Charge          ....    0
 Multiplicity           Mult            ....    1
 Number of Electrons    NEL             ....   58
 Basis Dimension        Dim             ....  153

MULLIKEN ATOMIC CHARGES
-----------------------
   0 C :    0.150881
   1 O :   -0.325603
   2 C :    0.217199
   3 C :    0.080962
   4 N :   -0.212941
   5 O :   -0.348568
   6 C :    0.137816
   7 H :    0.030527
   8 H :    0.018715
   9 H :    0.007246
  10 H :   -0.010766
  11 H :   -0.001935
  12 H :    0.013112
  13 H :    0.089305
  14 H :    0.090724
  15 H :    0.031060
  16 H :    0.023968
  17 H :    0.008298
Sum of atomic charges:   -0.0000000

LOEWDIN ATOMIC CHARGES
----------------------
   0 C :    0.052166
   1 O :   -0.134607
   2 C :    0.093343
   3 C :   -0.013227
   4 N :   -0.108067
   5 O :   -0.148510
   6 C :    0.045862
   7 H :    0.022542
   8 H :    0.008408
   9 H :    0.009570
  10 H :    0.006390
  11 H :    0.001796
  12 H :    0.026572
  13 H :    0.048087
  14 H :    0.054565
  15 H :    0.023738
  16 H :    0.009133
  17 H :    0.002240

  Mayer bond orders larger than 0.1
B(  0-C ,  1-O ) :   0.9906 B(  0-C ,  7-H ) :   0.9776 B(  0-C ,  8-H ) :   0.9617
B(  0-C ,  9-H ) :   0.9587 B(  1-O ,  2-C ) :   1.0699 B(  2-C ,  3-C ) :   1.0289
B(  2-C ,  5-O ) :   1.0450 B(  2-C , 10-H ) :   0.9090 B(  3-C ,  4-N ) :   1.0845
B(  3-C , 11-H ) :   0.9068 B(  3-C , 12-H ) :   0.9238 B(  4-N , 13-H ) :   0.9635
B(  4-N , 14-H ) :   0.9629 B(  5-O ,  6-C ) :   0.9925 B(  6-C , 15-H ) :   0.9750
B(  6-C , 16-H ) :   0.9553 B(  6-C , 17-H ) :   0.9547

FINAL SINGLE POINT ENERGY      -363.495831478914

DIPOLE MOMENT
-------------
                                X             Y             Z
Electronic contribution:     -0.64466       1.24790       0.02360
Nuclear contribution   :      0.80858      -1.72113       0.00132
                        -----------------------------------------
Total Dipole Moment    :      0.16392      -0.47322       0.02493
                        -----------------------------------------
Magnitude (a.u.)       :      0.50143
Magnitude (Debye)      :      1.27453

                             ****ORCA TERMINATED NORMALLY****
TOTAL RUN TIME: 0 days 0 hours 0 minutes 8 seconds 78 msec
