                         Program Version 3.0.3 - RELEASE   -
|  1> ! RI PBE def2-SVP def2-SVP/J NBO PAL2
|  2> % maxcore 2000
|  3> % output
|  4>     # printlevel mini
|  5>     print[ P_Basis ] 0
|  6>     print[ P_SCFInfo ] 1
|  7>     print[ P_SCFIterInfo ] 1
|  8>     print[ P_OrbEn ] 0
|  9>     print[ P_Cartesian ] 0
| 10> end
| 11> *xyz 0 1
| 12>  C        5.0076380000     0.6814200000    -0.4994360000
| 13>  O        3.8526980000    -0.1070550000    -0.6424440000
| 14>  C        3.5800840000    -0.8992420000     0.4876400000
| 15>  C        4.5327860000    -2.0407190000     0.6305410000
| 16>  N        5.1854780000    -2.1779450000     1.7078350000
| 17>  O        5.9948620000    -3.2867750000     1.6884720000
| 18>  C        6.6986330000    -3.3785090000     2.9093560000
| 19>  H        5.1128840000     1.2632730000    -1.4150500000
| 20>  H        5.9090640000     0.0730210000    -0.3576840000
| 21>  H        4.9172070000     1.3681380000     0.3530140000
| 22>  H        2.5674250000    -1.2867140000     0.3394520000
| 23>  H        3.5923380000    -0.3052850000     1.4110610000
| 24>  H        4.6527220000    -2.7413870000    -0.1982000000
| 25>  H        7.3152350000    -4.2734470000     2.8292580000
| 26>  H        6.0098620000    -3.4785080000     3.7526240000
| 27>  H        7.3360730000    -2.5033750000     3.0626410000
| 28> *
| 29>
| 30>                          ****END OF INPUT****
 Total Charge           Charge          ....    0
 Multiplicity           Mult            ....    1
 Number of Electrons    NEL             ....   56
 Basis Dimension        Dim             ....  143

MULLIKEN ATOMIC CHARGES
-----------------------
   0 C :    0.143624
   1 O :   -0.351820
   2 C :    0.253358
   3 C :   -0.105574
   4 N :    0.005302
   5 O :   -0.274962
   6 C :    0.156879
   7 H :    0.033295
   8 H :    0.014726
   9 H :    0.006736
  10 H :    0.024923
  11 H :    0.000184
  12 H :    0.013965
  13 H :    0.034172
  14 H :    0.022025
  15 H :    0.023167
Sum of atomic charges:    0.0000000

LOEWDIN ATOMIC CHARGES
----------------------
   0 C :    0.049641
   1 O :   -0.148023
   2 C :    0.049051
   3 C :   -0.049479
   4 N :    0.002074
   5 O :   -0.085164
   6 C :    0.042411
   7 H :    0.023859
   8 H :    0.005534
   9 H :    0.007329
  10 H :    0.031793
  11 H :    0.011891
  12 H :    0.008697
  13 H :    0.024927
  14 H :    0.012941
  15 H :    0.012517

  Mayer bond orders larger than 0.1
B(  0-C ,  1-O ) :   1.0113 B(  0-C ,  7-H ) :   0.9768 B(  0-C ,  8-H ) :   0.9541
B(  0-C ,  9-H ) :   0.9554 B(  1-O ,  2-C ) :   1.0252 B(  2-C ,  3-C ) :   1.0304
B(  2-C , 10-H ) :   0.9212 B(  2-C , 11-H ) :   0.9225 B(  3-C ,  4-N ) :   1.8670
B(  3-C ,  5-O ) :   0.1133 B(  3-C , 12-H ) :   0.9377 B(  4-N ,  5-O ) :   0.9606
B(  5-O ,  6-C ) :   0.9711 B(  6-C , 13-H ) :   0.9742 B(  6-C , 14-H ) :   0.9678
B(  6-C , 15-H ) :   0.9680

FINAL SINGLE POINT ENERGY      -362.244820349271

DIPOLE MOMENT
-------------
                                X             Y             Z
Electronic contribution:     -1.88710      -2.37216      -1.22088
Nuclear contribution   :      2.22796       2.31276       1.56019
                        -----------------------------------------
Total Dipole Moment    :      0.34086      -0.05940       0.33931
                        -----------------------------------------
Magnitude (a.u.)       :      0.48461
Magnitude (Debye)      :      1.23177

                             ****ORCA TERMINATED NORMALLY****
TOTAL RUN TIME: 0 days 0 hours 0 minutes 6 seconds 537 msec
