                         Program Version 3.0.3 - RELEASE   -
|  1> ! RI PBE def2-SVP def2-SVP/J NBO PAL2
|  2> % maxcore 2000
|  3> % output
|  4>     # printlevel mini
|  5>     print[ P_Basis ] 0
|  6>     print[ P_SCFInfo ] 1
|  7>     print[ P_SCFIterInfo ] 1
|  8>     print[ P_OrbEn ] 0
|  9>     print[ P_Cartesian ] 0
| 10> end
| 11> *xyz 0 1
| 12>  C        1.2711130000    -0.9290070000     2.5242790000
| 13>  O        2.6573970000    -0.8419110000     2.3519740000
| 14>  C        3.0338470000     0.2791030000     1.5962090000
| 15>  C        4.5371510000     0.2810450000     1.4311330000
| 16>  O        4.8653410000     1.3381750000     0.5649760000
| 17>  C        5.2737220000     0.4504390000     2.7515500000
| 18>  N        6.6923590000     0.6425520000     2.4657480000
| 19>  H        1.0660980000    -1.8239420000     3.1125070000
| 20>  H        0.7500110000    -1.0093260000     1.5600070000
| 21>  H        0.8744760000    -0.0536660000     3.0576640000
| 22>  H        2.7176200000     1.2114160000     2.0903420000
| 23>  H        2.5653260000     0.2572470000     0.6015250000
| 24>  H        4.8304800000    -0.6860660000     0.9880470000
| 25>  H        5.7943350000     1.5318640000     0.7641250000
| 26>  H        5.0534620000    -0.3955490000     3.4122820000
| 27>  H        4.9021660000     1.3601660000     3.2339240000
| 28>  H        7.1470750000    -0.2412440000     2.2716720000
| 29>  H        7.1739320000     1.0639860000     3.2477260000
| 30> *
| 31>
| 32>                          ****END OF INPUT****
 Total Charge           Charge          ....    0
 Multiplicity           Mult            ....    1
 Number of Electrons    NEL             ....   58
 Basis Dimension        Dim             ....  153

MULLIKEN ATOMIC CHARGES
-----------------------
   0 C :    0.153227
   1 O :   -0.356453
   2 C :    0.216013
   3 C :    0.060358
   4 O :   -0.272383
   5 C :    0.055121
   6 N :   -0.215903
   7 H :    0.030160
   8 H :    0.004530
   9 H :    0.003039
  10 H :   -0.018135
  11 H :    0.004338
  12 H :   -0.018058
  13 H :    0.138410
  14 H :    0.014914
  15 H :   -0.000237
  16 H :    0.098978
  17 H :    0.102078
Sum of atomic charges:   -0.0000000

LOEWDIN ATOMIC CHARGES
----------------------
   0 C :    0.050906
   1 O :   -0.149547
   2 C :    0.058043
   3 C :    0.025650
   4 O :   -0.119873
   5 C :   -0.008663
   6 N :   -0.093146
   7 H :    0.021836
   8 H :    0.005598
   9 H :    0.004715
  10 H :    0.002003
  11 H :    0.009054
  12 H :    0.001604
  13 H :    0.045453
  14 H :    0.010301
  15 H :    0.020343
  16 H :    0.057275
  17 H :    0.058450

  Mayer bond orders larger than 0.1
B(  0-C ,  1-O ) :   1.0204 B(  0-C ,  7-H ) :   0.9768 B(  0-C ,  8-H ) :   0.9559
B(  0-C ,  9-H ) :   0.9558 B(  1-O ,  2-C ) :   1.0154 B(  2-C ,  3-C ) :   1.0364
B(  2-C , 10-H ) :   0.9081 B(  2-C , 11-H ) :   0.9257 B(  3-C ,  4-O ) :   1.0950
B(  3-C ,  5-C ) :   1.0447 B(  3-C , 12-H ) :   0.8911 B(  4-O , 13-H ) :   0.9413
B(  5-C ,  6-N ) :   1.0901 B(  5-C , 14-H ) :   0.9298 B(  5-C , 15-H ) :   0.9216
B(  6-N , 13-H ) :   0.1189 B(  6-N , 16-H ) :   0.9684 B(  6-N , 17-H ) :   0.9653

FINAL SINGLE POINT ENERGY      -363.503662092600

DIPOLE MOMENT
-------------
                                X             Y             Z
Electronic contribution:      1.94860       0.47936      -1.89857
Nuclear contribution   :     -1.66931      -0.73489       2.65487
                        -----------------------------------------
Total Dipole Moment    :      0.27929      -0.25553       0.75630
                        -----------------------------------------
Magnitude (a.u.)       :      0.84575
Magnitude (Debye)      :      2.14971

                             ****ORCA TERMINATED NORMALLY****
TOTAL RUN TIME: 0 days 0 hours 0 minutes 7 seconds 698 msec
