                         Program Version 3.0.3 - RELEASE   -
|  1> ! RI PBE def2-SVP def2-SVP/J NBO PAL2
|  2> % maxcore 2000
|  3> % output
|  4>     # printlevel mini
|  5>     print[ P_Basis ] 0
|  6>     print[ P_SCFInfo ] 1
|  7>     print[ P_SCFIterInfo ] 1
|  8>     print[ P_OrbEn ] 0
|  9>     print[ P_Cartesian ] 0
| 10> end
| 11> *xyz 0 1
| 12>  C        3.0187180000    -0.8139040000    -0.5674720000
| 13>  O        2.6303800000    -0.5668710000     0.7656440000
| 14>  C        2.8165510000     0.7358630000     1.1728670000
| 15>  C        2.1656350000     0.9239320000     2.5158130000
| 16>  O        4.2317230000     0.9662930000     1.2667380000
| 17>  N        4.5252980000     2.2678980000     0.9663920000
| 18>  C        5.7483200000     2.5396570000     1.1413440000
| 19>  H        2.7612220000    -1.8496350000    -0.7858540000
| 20>  H        4.0943990000    -0.6719080000    -0.7044300000
| 21>  H        2.4808630000    -0.1557090000    -1.2617010000
| 22>  H        2.4376640000     1.4505990000     0.4288270000
| 23>  H        2.5841180000     0.2113270000     3.2284330000
| 24>  H        1.0898670000     0.7595800000     2.4386410000
| 25>  H        2.3461960000     1.9380780000     2.8743280000
| 26>  H        6.0563410000     3.5515410000     0.9081770000
| 27>  H        6.4699140000     1.8089590000     1.5035530000
| 28> *
| 29>
| 30>                          ****END OF INPUT****
 Total Charge           Charge          ....    0
 Multiplicity           Mult            ....    1
 Number of Electrons    NEL             ....   56
 Basis Dimension        Dim             ....  143

MULLIKEN ATOMIC CHARGES
-----------------------
   0 C :    0.154754
   1 O :   -0.313068
   2 C :    0.214228
   3 C :    0.025600
   4 O :   -0.270728
   5 N :   -0.014720
   6 C :   -0.020579
   7 H :    0.032616
   8 H :    0.021947
   9 H :    0.005038
  10 H :   -0.012493
  11 H :    0.033356
  12 H :    0.035298
  13 H :    0.023815
  14 H :    0.051376
  15 H :    0.033559
Sum of atomic charges:    0.0000000

LOEWDIN ATOMIC CHARGES
----------------------
   0 C :    0.053450
   1 O :   -0.120028
   2 C :    0.096585
   3 C :   -0.077587
   4 O :   -0.086900
   5 N :    0.009398
   6 C :   -0.050087
   7 H :    0.024662
   8 H :    0.010638
   9 H :    0.009616
  10 H :   -0.008867
  11 H :    0.035260
  12 H :    0.036509
  13 H :    0.034049
  14 H :    0.026451
  15 H :    0.006852

  Mayer bond orders larger than 0.1
B(  0-C ,  1-O ) :   0.9900 B(  0-C ,  7-H ) :   0.9776 B(  0-C ,  8-H ) :   0.9633
B(  0-C ,  9-H ) :   0.9549 B(  1-O ,  2-C ) :   1.1240 B(  2-C ,  3-C ) :   1.0950
B(  2-C ,  4-O ) :   0.9165 B(  2-C , 10-H ) :   0.9106 B(  3-C , 11-H ) :   0.9472
B(  3-C , 12-H ) :   0.9543 B(  3-C , 13-H ) :   0.9459 B(  4-O ,  5-N ) :   0.9738
B(  4-O ,  6-C ) :   0.1260 B(  5-N ,  6-C ) :   1.9355 B(  6-C , 14-H ) :   0.9520
B(  6-C , 15-H ) :   0.9331

FINAL SINGLE POINT ENERGY      -362.258515117350

DIPOLE MOMENT
-------------
                                X             Y             Z
Electronic contribution:      1.90225       0.57425       0.34759
Nuclear contribution   :     -1.75689      -0.43856      -0.57936
                        -----------------------------------------
Total Dipole Moment    :      0.14535       0.13569      -0.23177
                        -----------------------------------------
Magnitude (a.u.)       :      0.30538
Magnitude (Debye)      :      0.77622

                             ****ORCA TERMINATED NORMALLY****
TOTAL RUN TIME: 0 days 0 hours 0 minutes 7 seconds 150 msec
