                         Program Version 3.0.3 - RELEASE   -
|  1> ! RI PBE def2-SVP def2-SVP/J NBO PAL2
|  2> % maxcore 2000
|  3> % output
|  4>     # printlevel mini
|  5>     print[ P_Basis ] 0
|  6>     print[ P_SCFInfo ] 1
|  7>     print[ P_SCFIterInfo ] 1
|  8>     print[ P_OrbEn ] 0
|  9>     print[ P_Cartesian ] 0
| 10> end
| 11> *xyz 0 1
| 12>  C        4.4008800000     3.0797460000    -1.7908610000
| 13>  O        5.0916000000     2.1237810000    -1.0373110000
| 14>  C        4.2508560000     1.4187820000    -0.1657360000
| 15>  C        5.0711380000     0.4721600000     0.6703140000
| 16>  O        5.9157610000     1.1297140000     1.5999610000
| 17>  N        5.1723250000     1.6158340000     2.6433760000
| 18>  C        5.8769020000     2.2627260000     3.4708330000
| 19>  H        3.9183430000     3.8289330000    -1.1477320000
| 20>  H        3.6274900000     2.6174000000    -2.4211950000
| 21>  H        5.1259860000     3.5799400000    -2.4332400000
| 22>  H        3.7010310000     2.1075120000     0.4925390000
| 23>  H        3.5064120000     0.8350450000    -0.7320860000
| 24>  H        5.7493210000    -0.0967130000     0.0313290000
| 25>  H        4.4092450000    -0.2185300000     1.2016070000
| 26>  H        5.3623820000     2.6663200000     4.3342090000
| 27>  H        6.9473270000     2.4141710000     3.3400040000
| 28> *
| 29>
| 30>                          ****END OF INPUT****
 Total Charge           Charge          ....    0
 Multiplicity           Mult            ....    1
 Number of Electrons    NEL             ....   56
 Basis Dimension        Dim             ....  143

MULLIKEN ATOMIC CHARGES
-----------------------
   0 C :    0.152724
   1 O :   -0.349892
   2 C :    0.142981
   3 C :    0.207413
   4 O :   -0.270371
   5 N :   -0.016216
   6 C :   -0.019754
   7 H :    0.005234
   8 H :    0.000660
   9 H :    0.032969
  10 H :    0.004555
  11 H :   -0.008641
  12 H :    0.024791
  13 H :    0.008268
  14 H :    0.050233
  15 H :    0.035045
Sum of atomic charges:    0.0000000

LOEWDIN ATOMIC CHARGES
----------------------
   0 C :    0.050348
   1 O :   -0.149121
   2 C :    0.039863
   3 C :    0.041875
   4 O :   -0.073070
   5 N :    0.007644
   6 C :   -0.048075
   7 H :    0.005843
   8 H :    0.003587
   9 H :    0.023754
  10 H :    0.009336
  11 H :    0.007910
  12 H :    0.028712
  13 H :    0.017571
  14 H :    0.026106
  15 H :    0.007719

  Mayer bond orders larger than 0.1
B(  0-C ,  1-O ) :   1.0206 B(  0-C ,  7-H ) :   0.9564 B(  0-C ,  8-H ) :   0.9545
B(  0-C ,  9-H ) :   0.9764 B(  1-O ,  2-C ) :   1.0247 B(  2-C ,  3-C ) :   1.0893
B(  2-C , 10-H ) :   0.9116 B(  2-C , 11-H ) :   0.9157 B(  3-C ,  4-O ) :   0.9758
B(  3-C , 12-H ) :   0.9345 B(  3-C , 13-H ) :   0.9252 B(  4-O ,  5-N ) :   0.9742
B(  4-O ,  6-C ) :   0.1230 B(  5-N ,  6-C ) :   1.9340 B(  6-C , 14-H ) :   0.9527
B(  6-C , 15-H ) :   0.9328

FINAL SINGLE POINT ENERGY      -362.242810311437

DIPOLE MOMENT
-------------
                                X             Y             Z
Electronic contribution:      3.03299      -1.81363       3.55603
Nuclear contribution   :     -3.38115       1.94086      -3.63916
                        -----------------------------------------
Total Dipole Moment    :     -0.34816       0.12724      -0.08313
                        -----------------------------------------
Magnitude (a.u.)       :      0.37988
Magnitude (Debye)      :      0.96559

                             ****ORCA TERMINATED NORMALLY****
TOTAL RUN TIME: 0 days 0 hours 0 minutes 6 seconds 463 msec
