                         Program Version 3.0.3 - RELEASE   -
|  1> ! RI PBE def2-SVP def2-SVP/J NBO PAL2
|  2> % maxcore 2000
|  3> % output
|  4>     # printlevel mini
|  5>     print[ P_Basis ] 0
|  6>     print[ P_SCFInfo ] 1
|  7>     print[ P_SCFIterInfo ] 1
|  8>     print[ P_OrbEn ] 0
|  9>     print[ P_Cartesian ] 0
| 10> end
| 11> *xyz 0 1
| 12>  C        3.0467770000     0.3596850000    -1.1824920000
| 13>  O        2.4162690000    -0.3171600000    -0.1129760000
| 14>  C        3.1864110000    -0.9091120000     0.8008920000
| 15>  N        2.4374280000    -1.5350380000     1.7372160000
| 16>  C        4.5492200000    -0.9146600000     0.7809210000
| 17>  C        5.2484610000    -1.5423370000     1.8245910000
| 18>  N        5.7808950000    -2.0669020000     2.7077190000
| 19>  H        2.2433480000     0.7728820000    -1.7882470000
| 20>  H        3.6411480000    -0.3319930000    -1.7852230000
| 21>  H        3.6823820000     1.1686360000    -0.8126990000
| 22>  H        1.4808190000    -1.2430860000     1.8313960000
| 23>  H        2.9059710000    -1.8718470000     2.5612830000
| 24>  H        5.1078690000    -0.4582790000    -0.0199610000
| 25> *
| 26>
| 27>                          ****END OF INPUT****
 Total Charge           Charge          ....    0
 Multiplicity           Mult            ....    1
 Number of Electrons    NEL             ....   52
 Basis Dimension        Dim             ....  128

MULLIKEN ATOMIC CHARGES
-----------------------
   0 C :    0.142638
   1 O :   -0.260022
   2 C :    0.106481
   3 N :   -0.035364
   4 C :   -0.231776
   5 C :   -0.153248
   6 N :    0.018152
   7 H :    0.049331
   8 H :    0.042466
   9 H :    0.040765
  10 H :    0.126339
  11 H :    0.136833
  12 H :    0.017406
Sum of atomic charges:   -0.0000000

LOEWDIN ATOMIC CHARGES
----------------------
   0 C :    0.070652
   1 O :   -0.056160
   2 C :    0.079405
   3 N :    0.020542
   4 C :   -0.233278
   5 C :   -0.061519
   6 N :   -0.109658
   7 H :    0.033210
   8 H :    0.024110
   9 H :    0.023181
  10 H :    0.079569
  11 H :    0.087038
  12 H :    0.042909

  Mayer bond orders larger than 0.1
B(  0-C ,  1-O ) :   0.9657 B(  0-C ,  7-H ) :   0.9708 B(  0-C ,  8-H ) :   0.9625
B(  0-C ,  9-H ) :   0.9618 B(  1-O ,  2-C ) :   1.1970 B(  2-C ,  3-N ) :   1.3350
B(  2-C ,  4-C ) :   1.4961 B(  3-N , 10-H ) :   0.9342 B(  3-N , 11-H ) :   0.9294
B(  4-C ,  5-C ) :   1.1530 B(  4-C , 12-H ) :   0.9382 B(  5-C ,  6-N ) :   2.9246

FINAL SINGLE POINT ENERGY      -340.074910279551

DIPOLE MOMENT
-------------
                                X             Y             Z
Electronic contribution:      1.57233      -2.57078       3.91139
Nuclear contribution   :     -3.10556       3.52931      -5.01325
                        -----------------------------------------
Total Dipole Moment    :     -1.53323       0.95853      -1.10186
                        -----------------------------------------
Magnitude (a.u.)       :      2.11747
Magnitude (Debye)      :      5.38218

                             ****ORCA TERMINATED NORMALLY****
TOTAL RUN TIME: 0 days 0 hours 0 minutes 6 seconds 3 msec
