                         Program Version 3.0.3 - RELEASE   -
|  1> ! RI PBE def2-SVP def2-SVP/J NBO PAL2
|  2> % maxcore 2000
|  3> % output
|  4>     # printlevel mini
|  5>     print[ P_Basis ] 0
|  6>     print[ P_SCFInfo ] 1
|  7>     print[ P_SCFIterInfo ] 1
|  8>     print[ P_OrbEn ] 0
|  9>     print[ P_Cartesian ] 0
| 10> end
| 11> *xyz 0 1
| 12>  C        3.2100870000     0.1374330000     0.6976650000
| 13>  O        2.5041190000    -0.8744010000     0.0046930000
| 14>  C        3.1815410000    -1.6886340000    -0.8116380000
| 15>  N        2.3317520000    -2.5749220000    -1.3704420000
| 16>  C        4.5286920000    -1.6126670000    -1.0285150000
| 17>  C        5.2414770000    -2.4907150000    -1.9050460000
| 18>  O        6.4357860000    -2.4520600000    -2.1212780000
| 19>  H        2.4638350000     0.6635080000     1.2893070000
| 20>  H        3.6838600000     0.8322530000     0.0001560000
| 21>  H        3.9659990000    -0.2944360000     1.3578470000
| 22>  H        1.3594270000    -2.5305830000    -1.1315250000
| 23>  H        2.6561170000    -3.2691320000    -2.0138970000
| 24>  H        5.1103300000    -0.8568030000    -0.5222990000
| 25>  H        4.6314780000    -3.2693420000    -2.4243180000
| 26> *
| 27>
| 28>                          ****END OF INPUT****
 Total Charge           Charge          ....    0
 Multiplicity           Mult            ....    1
 Number of Electrons    NEL             ....   54
 Basis Dimension        Dim             ....  133

MULLIKEN ATOMIC CHARGES
-----------------------
   0 C :    0.133611
   1 O :   -0.261518
   2 C :    0.121968
   3 N :   -0.038796
   4 C :   -0.126106
   5 C :    0.092453
   6 O :   -0.212776
   7 H :    0.045471
   8 H :    0.046878
   9 H :    0.046968
  10 H :    0.126290
  11 H :    0.116753
  12 H :   -0.015591
  13 H :   -0.075604
Sum of atomic charges:   -0.0000000

LOEWDIN ATOMIC CHARGES
----------------------
   0 C :    0.070643
   1 O :   -0.061090
   2 C :    0.080299
   3 N :    0.023932
   4 C :   -0.217849
   5 C :    0.041318
   6 O :   -0.166179
   7 H :    0.031324
   8 H :    0.024349
   9 H :    0.024116
  10 H :    0.079048
  11 H :    0.071519
  12 H :    0.032282
  13 H :   -0.033712

  Mayer bond orders larger than 0.1
B(  0-C ,  1-O ) :   0.9595 B(  0-C ,  7-H ) :   0.9714 B(  0-C ,  8-H ) :   0.9645
B(  0-C ,  9-H ) :   0.9646 B(  1-O ,  2-C ) :   1.1934 B(  2-C ,  3-N ) :   1.3280
B(  2-C ,  4-C ) :   1.4086 B(  3-N , 10-H ) :   0.9349 B(  3-N , 11-H ) :   0.9375
B(  4-C ,  5-C ) :   1.1191 B(  4-C , 12-H ) :   0.9450 B(  5-C ,  6-O ) :   2.0616
B(  5-C , 13-H ) :   0.9236

FINAL SINGLE POINT ENERGY      -361.122467753580

DIPOLE MOMENT
-------------
                                X             Y             Z
Electronic contribution:      1.22261      -2.25246      -2.12236
Nuclear contribution   :     -3.18016       2.59144       2.81127
                        -----------------------------------------
Total Dipole Moment    :     -1.95755       0.33898       0.68891
                        -----------------------------------------
Magnitude (a.u.)       :      2.10274
Magnitude (Debye)      :      5.34473

                             ****ORCA TERMINATED NORMALLY****
TOTAL RUN TIME: 0 days 0 hours 0 minutes 6 seconds 323 msec
