                         Program Version 3.0.3 - RELEASE   -
|  1> ! RI PBE def2-SVP def2-SVP/J NBO PAL2
|  2> % maxcore 2000
|  3> % output
|  4>     # printlevel mini
|  5>     print[ P_Basis ] 0
|  6>     print[ P_SCFInfo ] 1
|  7>     print[ P_SCFIterInfo ] 1
|  8>     print[ P_OrbEn ] 0
|  9>     print[ P_Cartesian ] 0
| 10> end
| 11> *xyz 0 1
| 12>  C        1.1298300000    -0.0257000000    -1.8546100000
| 13>  O        1.9881710000     0.1434690000    -0.7355730000
| 14>  C        3.0358780000     0.9397610000    -0.9149580000
| 15>  N        3.2810760000     1.5282130000    -2.0080440000
| 16>  N        4.4613930000     2.3125510000    -1.9090410000
| 17>  C        5.1605920000     2.3569770000    -3.1907650000
| 18>  C        4.3588710000     3.5072710000    -2.7435690000
| 19>  H        0.3406380000    -0.6987180000    -1.5255200000
| 20>  H        1.6757110000    -0.4570000000    -2.6961780000
| 21>  H        0.7110390000     0.9332400000    -2.1665050000
| 22>  H        3.6540340000     1.0295130000    -0.0230560000
| 23>  H        4.7455620000     1.7421800000    -3.9811240000
| 24>  H        6.2416440000     2.3710990000    -3.1158400000
| 25>  H        3.4049360000     3.6655470000    -3.2332940000
| 26>  H        4.8350370000     4.3891060000    -2.3311340000
| 27> *
| 28>
| 29>                          ****END OF INPUT****
 Total Charge           Charge          ....    0
 Multiplicity           Mult            ....    1
 Number of Electrons    NEL             ....   54
 Basis Dimension        Dim             ....  138

MULLIKEN ATOMIC CHARGES
-----------------------
   0 C :    0.144432
   1 O :   -0.253317
   2 C :    0.169335
   3 N :   -0.168599
   4 N :   -0.229808
   5 C :    0.033020
   6 C :    0.047163
   7 H :    0.040121
   8 H :    0.030755
   9 H :    0.029559
  10 H :    0.012773
  11 H :    0.029816
  12 H :    0.045800
  13 H :    0.029472
  14 H :    0.039475
Sum of atomic charges:   -0.0000000

LOEWDIN ATOMIC CHARGES
----------------------
   0 C :    0.063497
   1 O :   -0.054691
   2 C :    0.038417
   3 N :   -0.119089
   4 N :   -0.067832
   5 C :   -0.004904
   6 C :   -0.001851
   7 H :    0.024793
   8 H :    0.020327
   9 H :    0.020357
  10 H :    0.002369
  11 H :    0.016622
  12 H :    0.023167
  13 H :    0.016701
  14 H :    0.022118

  Mayer bond orders larger than 0.1
B(  0-C ,  1-O ) :   0.9569 B(  0-C ,  7-H ) :   0.9734 B(  0-C ,  8-H ) :   0.9658
B(  0-C ,  9-H ) :   0.9653 B(  1-O ,  2-C ) :   1.2002 B(  2-C ,  3-N ) :   1.7585
B(  2-C , 10-H ) :   0.9448 B(  3-N ,  4-N ) :   0.9450 B(  4-N ,  5-C ) :   0.9460
B(  4-N ,  6-C ) :   0.9401 B(  5-C ,  6-C ) :   1.0937 B(  5-C , 11-H ) :   0.9354
B(  5-C , 12-H ) :   0.9506 B(  6-C , 13-H ) :   0.9357 B(  6-C , 14-H ) :   0.9510

FINAL SINGLE POINT ENERGY      -341.208573894478

DIPOLE MOMENT
-------------
                                X             Y             Z
Electronic contribution:      0.50160      -0.91498       3.28098
Nuclear contribution   :     -0.75891       0.86883      -3.60364
                        -----------------------------------------
Total Dipole Moment    :     -0.25731      -0.04615      -0.32267
                        -----------------------------------------
Magnitude (a.u.)       :      0.41528
Magnitude (Debye)      :      1.05555

                             ****ORCA TERMINATED NORMALLY****
TOTAL RUN TIME: 0 days 0 hours 0 minutes 6 seconds 356 msec
