                         Program Version 3.0.3 - RELEASE   -
|  1> ! RI PBE def2-SVP def2-SVP/J NBO PAL2
|  2> % maxcore 2000
|  3> % output
|  4>     # printlevel mini
|  5>     print[ P_Basis ] 0
|  6>     print[ P_SCFInfo ] 1
|  7>     print[ P_SCFIterInfo ] 1
|  8>     print[ P_OrbEn ] 0
|  9>     print[ P_Cartesian ] 0
| 10> end
| 11> *xyz 0 1
| 12>  C        2.4032380000    -1.2684570000    -0.4207760000
| 13>  O        2.2920610000    -0.2196860000     0.5288040000
| 14>  C        3.4041370000     0.4045630000     0.9672820000
| 15>  N        3.3853360000     1.2439270000     1.9112930000
| 16>  N        4.5789110000     0.0212090000     0.3212010000
| 17>  C        5.7016120000     0.9220060000     0.3777020000
| 18>  C        4.9582100000     0.7432490000    -0.8899780000
| 19>  H        1.4034940000    -1.6916110000    -0.5050920000
| 20>  H        3.1055820000    -2.0334970000    -0.0870520000
| 21>  H        2.7177680000    -0.8949070000    -1.3983690000
| 22>  H        2.4459940000     1.3232900000     2.2912670000
| 23>  H        6.6639250000     0.4393060000     0.5031360000
| 24>  H        5.5499060000     1.8428700000     0.9288240000
| 25>  H        5.3646760000     0.1332970000    -1.6893560000
| 26>  H        4.3132490000     1.5592390000    -1.2017760000
| 27> *
| 28>
| 29>                          ****END OF INPUT****
 Total Charge           Charge          ....    0
 Multiplicity           Mult            ....    1
 Number of Electrons    NEL             ....   54
 Basis Dimension        Dim             ....  138

MULLIKEN ATOMIC CHARGES
-----------------------
   0 C :    0.146254
   1 O :   -0.267367
   2 C :    0.036106
   3 N :   -0.113689
   4 N :   -0.272846
   5 C :    0.070876
   6 C :    0.031219
   7 H :    0.038684
   8 H :    0.038657
   9 H :    0.020516
  10 H :    0.094342
  11 H :    0.037150
  12 H :    0.050841
  13 H :    0.044543
  14 H :    0.044715
Sum of atomic charges:   -0.0000000

LOEWDIN ATOMIC CHARGES
----------------------
   0 C :    0.062440
   1 O :   -0.086201
   2 C :    0.018484
   3 N :   -0.169677
   4 N :   -0.087906
   5 C :    0.030112
   6 C :    0.022988
   7 H :    0.026438
   8 H :    0.020891
   9 H :    0.013937
  10 H :    0.052616
  11 H :    0.025443
  12 H :    0.025414
  13 H :    0.022059
  14 H :    0.022961

  Mayer bond orders larger than 0.1
B(  0-C ,  1-O ) :   0.9576 B(  0-C ,  7-H ) :   0.9742 B(  0-C ,  8-H ) :   0.9664
B(  0-C ,  9-H ) :   0.9676 B(  1-O ,  2-C ) :   1.1515 B(  2-C ,  3-N ) :   1.9441
B(  2-C ,  4-N ) :   1.0557 B(  3-N , 10-H ) :   0.9197 B(  4-N ,  5-C ) :   0.9593
B(  4-N ,  6-C ) :   0.9260 B(  5-C ,  6-C ) :   1.1012 B(  5-C , 11-H ) :   0.9471
B(  5-C , 12-H ) :   0.9223 B(  6-C , 13-H ) :   0.9482 B(  6-C , 14-H ) :   0.9331

FINAL SINGLE POINT ENERGY      -341.243462366060

DIPOLE MOMENT
-------------
                                X             Y             Z
Electronic contribution:     -1.26747       0.84056       3.05052
Nuclear contribution   :      1.27008      -1.20422      -3.99838
                        -----------------------------------------
Total Dipole Moment    :      0.00260      -0.36366      -0.94785
                        -----------------------------------------
Magnitude (a.u.)       :      1.01523
Magnitude (Debye)      :      2.58050

                             ****ORCA TERMINATED NORMALLY****
TOTAL RUN TIME: 0 days 0 hours 0 minutes 6 seconds 603 msec
