                         Program Version 3.0.3 - RELEASE   -
|  1> ! RI PBE def2-SVP def2-SVP/J NBO PAL2
|  2> % maxcore 2000
|  3> % output
|  4>     # printlevel mini
|  5>     print[ P_Basis ] 0
|  6>     print[ P_SCFInfo ] 1
|  7>     print[ P_SCFIterInfo ] 1
|  8>     print[ P_OrbEn ] 0
|  9>     print[ P_Cartesian ] 0
| 10> end
| 11> *xyz 0 1
| 12>  C        3.2181920000     1.6063870000    -0.1071020000
| 13>  O        2.0028690000     0.9971110000    -0.5255980000
| 14>  C        2.1067190000    -0.1902040000    -1.1012220000
| 15>  N        3.2167440000    -0.7805080000    -1.2848530000
| 16>  N        3.0355080000    -2.0082490000    -1.9083190000
| 17>  C        4.1224460000    -2.6317440000    -2.1105770000
| 18>  C        4.1317860000    -3.9619880000    -2.7661580000
| 19>  H        2.9344000000     2.5589840000     0.3353150000
| 20>  H        3.8827830000     1.7598770000    -0.9591840000
| 21>  H        3.7290790000     0.9783680000     0.6249310000
| 22>  H        1.1437020000    -0.6029330000    -1.3983980000
| 23>  H        5.0724730000    -2.1868450000    -1.7988690000
| 24>  H        3.1179460000    -4.2719080000    -3.0175090000
| 25>  H        4.5851440000    -4.7110760000    -2.1091370000
| 26>  H        4.7374000000    -3.9369740000    -3.6777210000
| 27> *
| 28>
| 29>                          ****END OF INPUT****
 Total Charge           Charge          ....    0
 Multiplicity           Mult            ....    1
 Number of Electrons    NEL             ....   54
 Basis Dimension        Dim             ....  138

MULLIKEN ATOMIC CHARGES
-----------------------
   0 C :    0.145198
   1 O :   -0.246406
   2 C :    0.170323
   3 N :   -0.166636
   4 N :   -0.090523
   5 C :   -0.075885
   6 C :    0.046766
   7 H :    0.038540
   8 H :    0.036167
   9 H :    0.035163
  10 H :    0.008924
  11 H :   -0.010291
  12 H :    0.028927
  13 H :    0.040247
  14 H :    0.039486
Sum of atomic charges:   -0.0000000

LOEWDIN ATOMIC CHARGES
----------------------
   0 C :    0.065265
   1 O :   -0.045533
   2 C :    0.046319
   3 N :   -0.119886
   4 N :   -0.054104
   5 C :   -0.002797
   6 C :   -0.076277
   7 H :    0.024830
   8 H :    0.022872
   9 H :    0.022522
  10 H :    0.000889
  11 H :   -0.004506
  12 H :    0.035918
  13 H :    0.042236
  14 H :    0.042251

  Mayer bond orders larger than 0.1
B(  0-C ,  1-O ) :   0.9487 B(  0-C ,  7-H ) :   0.9725 B(  0-C ,  8-H ) :   0.9669
B(  0-C ,  9-H ) :   0.9667 B(  1-O ,  2-C ) :   1.2170 B(  2-C ,  3-N ) :   1.6985
B(  2-C , 10-H ) :   0.9432 B(  3-N ,  4-N ) :   0.9890 B(  4-N ,  5-C ) :   1.8886
B(  5-C ,  6-C ) :   1.0708 B(  5-C , 11-H ) :   0.9360 B(  6-C , 12-H ) :   0.9496
B(  6-C , 13-H ) :   0.9430 B(  6-C , 14-H ) :   0.9421

FINAL SINGLE POINT ENERGY      -341.246058438110

DIPOLE MOMENT
-------------
                                X             Y             Z
Electronic contribution:     -3.57548       2.71551       0.99138
Nuclear contribution   :      3.98091      -2.56375      -0.87942
                        -----------------------------------------
Total Dipole Moment    :      0.40543       0.15177       0.11195
                        -----------------------------------------
Magnitude (a.u.)       :      0.44715
Magnitude (Debye)      :      1.13656

                             ****ORCA TERMINATED NORMALLY****
TOTAL RUN TIME: 0 days 0 hours 0 minutes 6 seconds 384 msec
