                         Program Version 3.0.3 - RELEASE   -
|  1> ! RI PBE def2-SVP def2-SVP/J NBO PAL2
|  2> % maxcore 2000
|  3> % output
|  4>     # printlevel mini
|  5>     print[ P_Basis ] 0
|  6>     print[ P_SCFInfo ] 1
|  7>     print[ P_SCFIterInfo ] 1
|  8>     print[ P_OrbEn ] 0
|  9>     print[ P_Cartesian ] 0
| 10> end
| 11> *xyz 0 1
| 12>  C        4.2133650000     0.3266960000     2.2385970000
| 13>  O        5.5237600000     0.4092610000     1.7198260000
| 14>  C        5.9220330000    -0.6283730000     0.9538720000
| 15>  N        5.1638820000    -1.6173200000     0.7152740000
| 16>  N        5.5767170000    -2.6401960000    -0.0485510000
| 17>  C        4.6502990000    -3.7110950000    -0.2596920000
| 18>  C        6.8800820000    -2.6634220000    -0.6236730000
| 19>  H        4.0631250000     1.2334530000     2.8225770000
| 20>  H        4.0967890000    -0.5562380000     2.8735360000
| 21>  H        3.4749230000     0.2679060000     1.4338880000
| 22>  H        6.9383340000    -0.4829030000     0.5982110000
| 23>  H        3.7335130000    -3.4687290000     0.2742170000
| 24>  H        5.0293800000    -4.6680350000     0.1234150000
| 25>  H        4.4056000000    -3.8431960000    -1.3221560000
| 26>  H        7.0473800000    -1.8108760000    -1.3000620000
| 27>  H        6.9991080000    -3.5807230000    -1.1995160000
| 28>  H        7.6696090000    -2.6362100000     0.1433160000
| 29> *
| 30>
| 31>                          ****END OF INPUT****
 Total Charge           Charge          ....    0
 Multiplicity           Mult            ....    1
 Number of Electrons    NEL             ....   56
 Basis Dimension        Dim             ....  148

MULLIKEN ATOMIC CHARGES
-----------------------
   0 C :    0.157812
   1 O :   -0.275947
   2 C :    0.073149
   3 N :   -0.100986
   4 N :   -0.265801
   5 C :    0.126205
   6 C :    0.108849
   7 H :    0.028239
   8 H :    0.016372
   9 H :    0.016690
  10 H :   -0.009077
  11 H :    0.028121
  12 H :    0.013755
  13 H :    0.013719
  14 H :    0.022894
  15 H :    0.022103
  16 H :    0.023902
Sum of atomic charges:   -0.0000000

LOEWDIN ATOMIC CHARGES
----------------------
   0 C :    0.056880
   1 O :   -0.084392
   2 C :   -0.024644
   3 N :   -0.088148
   4 N :   -0.028198
   5 C :    0.008110
   6 C :   -0.003360
   7 H :    0.020519
   8 H :    0.012896
   9 H :    0.013234
  10 H :   -0.006822
  11 H :    0.031644
  12 H :    0.013133
  13 H :    0.013183
  14 H :    0.016855
  15 H :    0.031596
  16 H :    0.017514

  Mayer bond orders larger than 0.1
B(  0-C ,  1-O ) :   0.9801 B(  0-C ,  7-H ) :   0.9736 B(  0-C ,  8-H ) :   0.9627
B(  0-C ,  9-H ) :   0.9628 B(  1-O ,  2-C ) :   1.1366 B(  2-C ,  3-N ) :   1.7128
B(  2-C ,  4-N ) :   0.1283 B(  2-C , 10-H ) :   0.9430 B(  3-N ,  4-N ) :   1.0882
B(  4-N ,  5-C ) :   1.0296 B(  4-N ,  6-C ) :   1.0371 B(  5-C , 11-H ) :   0.9611
B(  5-C , 12-H ) :   0.9605 B(  5-C , 13-H ) :   0.9603 B(  6-C , 14-H ) :   0.9418
B(  6-C , 15-H ) :   0.9576 B(  6-C , 16-H ) :   0.9410

FINAL SINGLE POINT ENERGY      -342.433370176035

DIPOLE MOMENT
-------------
                                X             Y             Z
Electronic contribution:      0.71400       3.75373       1.83590
Nuclear contribution   :     -0.63538      -4.26427      -2.16046
                        -----------------------------------------
Total Dipole Moment    :      0.07862      -0.51054      -0.32456
                        -----------------------------------------
Magnitude (a.u.)       :      0.61005
Magnitude (Debye)      :      1.55063

                             ****ORCA TERMINATED NORMALLY****
TOTAL RUN TIME: 0 days 0 hours 0 minutes 7 seconds 365 msec
