                         Program Version 3.0.3 - RELEASE   -
|  1> ! RI PBE def2-SVP def2-SVP/J NBO PAL2
|  2> % maxcore 2000
|  3> % output
|  4>     # printlevel mini
|  5>     print[ P_Basis ] 0
|  6>     print[ P_SCFInfo ] 1
|  7>     print[ P_SCFIterInfo ] 1
|  8>     print[ P_OrbEn ] 0
|  9>     print[ P_Cartesian ] 0
| 10> end
| 11> *xyz 0 1
| 12>  C        1.4579950000     0.0699720000    -0.0638830000
| 13>  O        2.8563910000    -0.0845950000    -0.1040260000
| 14>  C        3.4187360000    -0.8286900000     0.8853110000
| 15>  N        2.8250880000    -1.4085400000     1.8538720000
| 16>  N        4.7670410000    -0.9083850000     0.7453770000
| 17>  C        5.5143530000    -0.2856210000    -0.3151840000
| 18>  C        5.4879620000    -1.6725100000     1.7341780000
| 19>  H        1.1978310000     0.6867060000    -0.9226240000
| 20>  H        1.1366210000     0.5760500000     0.8519250000
| 21>  H        0.9455250000    -0.8937590000    -0.1457960000
| 22>  H        1.8240320000    -1.2672310000     1.8368360000
| 23>  H        4.8458970000     0.2519490000    -0.9805220000
| 24>  H        6.0574350000    -1.0344900000    -0.9032950000
| 25>  H        6.2459920000     0.4250000000     0.0865000000
| 26>  H        5.1529590000    -2.7129270000     1.7540010000
| 27>  H        5.3402930000    -1.2637840000     2.7372800000
| 28>  H        6.5492700000    -1.6420240000     1.4870510000
| 29> *
| 30>
| 31>                          ****END OF INPUT****
 Total Charge           Charge          ....    0
 Multiplicity           Mult            ....    1
 Number of Electrons    NEL             ....   56
 Basis Dimension        Dim             ....  148

MULLIKEN ATOMIC CHARGES
-----------------------
   0 C :    0.133517
   1 O :   -0.279640
   2 C :    0.051340
   3 N :   -0.156353
   4 N :   -0.292458
   5 C :    0.085088
   6 C :    0.128794
   7 H :    0.038232
   8 H :    0.030652
   9 H :    0.030802
  10 H :    0.062065
  11 H :    0.043561
  12 H :    0.025952
  13 H :    0.026110
  14 H :    0.031071
  15 H :    0.028285
  16 H :    0.012981
Sum of atomic charges:   -0.0000000

LOEWDIN ATOMIC CHARGES
----------------------
   0 C :    0.055730
   1 O :   -0.091745
   2 C :    0.031165
   3 N :   -0.217917
   4 N :   -0.047798
   5 C :    0.011877
   6 C :    0.022218
   7 H :    0.028753
   8 H :    0.014835
   9 H :    0.015085
  10 H :    0.036859
  11 H :    0.029313
  12 H :    0.018819
  13 H :    0.018402
  14 H :    0.026672
  15 H :    0.025841
  16 H :    0.021892

  Mayer bond orders larger than 0.1
B(  0-C ,  1-O ) :   0.9768 B(  0-C ,  7-H ) :   0.9703 B(  0-C ,  8-H ) :   0.9602
B(  0-C ,  9-H ) :   0.9595 B(  1-O ,  2-C ) :   1.1302 B(  2-C ,  3-N ) :   1.8499
B(  2-C ,  4-N ) :   1.1629 B(  3-N , 10-H ) :   0.9331 B(  4-N ,  5-C ) :   1.0136
B(  4-N ,  6-C ) :   1.0125 B(  5-C , 11-H ) :   0.9578 B(  5-C , 12-H ) :   0.9625
B(  5-C , 13-H ) :   0.9630 B(  6-C , 14-H ) :   0.9620 B(  6-C , 15-H ) :   0.9620
B(  6-C , 16-H ) :   0.9606

FINAL SINGLE POINT ENERGY      -342.475424233547

DIPOLE MOMENT
-------------
                                X             Y             Z
Electronic contribution:     -1.83710       0.14811       0.12586
Nuclear contribution   :      1.73088       0.29424      -0.76185
                        -----------------------------------------
Total Dipole Moment    :     -0.10621       0.44234      -0.63599
                        -----------------------------------------
Magnitude (a.u.)       :      0.78194
Magnitude (Debye)      :      1.98754

                             ****ORCA TERMINATED NORMALLY****
TOTAL RUN TIME: 0 days 0 hours 0 minutes 7 seconds 686 msec
