                         Program Version 3.0.3 - RELEASE   -
|  1> ! RI PBE def2-SVP def2-SVP/J NBO PAL2
|  2> % maxcore 2000
|  3> % output
|  4>     # printlevel mini
|  5>     print[ P_Basis ] 0
|  6>     print[ P_SCFInfo ] 1
|  7>     print[ P_SCFIterInfo ] 1
|  8>     print[ P_OrbEn ] 0
|  9>     print[ P_Cartesian ] 0
| 10> end
| 11> *xyz 0 1
| 12>  C        1.2086520000     1.2051110000    -0.2715760000
| 13>  O        2.5593200000     0.8002870000    -0.2616990000
| 14>  C        3.2712440000     1.0779840000     0.8585520000
| 15>  N        2.8961740000     1.6588130000     1.9193840000
| 16>  N        4.5455570000     0.6129500000     0.6787820000
| 17>  C        5.5435060000     0.7267440000     1.6233340000
| 18>  C        6.7883210000     0.2826600000     1.4707260000
| 19>  H        0.8094250000     0.9009160000    -1.2371320000
| 20>  H        1.1182060000     2.2908660000    -0.1701350000
| 21>  H        0.6404870000     0.7139180000     0.5241970000
| 22>  H        1.9253520000     1.9405860000     1.8915850000
| 23>  H        4.7390070000     0.1667810000    -0.2014680000
| 24>  H        5.2087050000     1.2251370000     2.5249700000
| 25>  H        7.1214270000    -0.2161180000     0.5670440000
| 26>  H        7.5079260000     0.4147660000     2.2655270000
| 27> *
| 28>
| 29>                          ****END OF INPUT****
 Total Charge           Charge          ....    0
 Multiplicity           Mult            ....    1
 Number of Electrons    NEL             ....   54
 Basis Dimension        Dim             ....  138

MULLIKEN ATOMIC CHARGES
-----------------------
   0 C :    0.133470
   1 O :   -0.268729
   2 C :   -0.002353
   3 N :   -0.123584
   4 N :   -0.060672
   5 C :    0.039627
   6 C :   -0.081959
   7 H :    0.041719
   8 H :    0.035610
   9 H :    0.035288
  10 H :    0.072923
  11 H :    0.117647
  12 H :    0.027336
  13 H :    0.005393
  14 H :    0.028283
Sum of atomic charges:    0.0000000

LOEWDIN ATOMIC CHARGES
----------------------
   0 C :    0.058946
   1 O :   -0.092410
   2 C :    0.032216
   3 N :   -0.194197
   4 N :    0.035277
   5 C :    0.021559
   6 C :   -0.135022
   7 H :    0.031304
   8 H :    0.017332
   9 H :    0.017600
  10 H :    0.044443
  11 H :    0.082007
  12 H :    0.034791
  13 H :    0.016762
  14 H :    0.029391

  Mayer bond orders larger than 0.1
B(  0-C ,  1-O ) :   0.9705 B(  0-C ,  7-H ) :   0.9716 B(  0-C ,  8-H ) :   0.9618
B(  0-C ,  9-H ) :   0.9614 B(  1-O ,  2-C ) :   1.1702 B(  2-C ,  3-N ) :   1.9022
B(  2-C ,  4-N ) :   1.1266 B(  3-N , 10-H ) :   0.9272 B(  4-N ,  5-C ) :   1.1480
B(  4-N , 11-H ) :   0.9141 B(  5-C ,  6-C ) :   1.8862 B(  5-C , 12-H ) :   0.9494
B(  6-C , 13-H ) :   0.9499 B(  6-C , 14-H ) :   0.9452

FINAL SINGLE POINT ENERGY      -341.275067982145

DIPOLE MOMENT
-------------
                                X             Y             Z
Electronic contribution:      0.13038      -0.22290      -0.42190
Nuclear contribution   :     -0.96198       0.10614      -0.42180
                        -----------------------------------------
Total Dipole Moment    :     -0.83160      -0.11677      -0.84369
                        -----------------------------------------
Magnitude (a.u.)       :      1.19038
Magnitude (Debye)      :      3.02571

                             ****ORCA TERMINATED NORMALLY****
TOTAL RUN TIME: 0 days 0 hours 0 minutes 6 seconds 787 msec
