                         Program Version 3.0.3 - RELEASE   -
|  1> ! RI PBE def2-SVP def2-SVP/J NBO PAL2
|  2> % maxcore 2000
|  3> % output
|  4>     # printlevel mini
|  5>     print[ P_Basis ] 0
|  6>     print[ P_SCFInfo ] 1
|  7>     print[ P_SCFIterInfo ] 1
|  8>     print[ P_OrbEn ] 0
|  9>     print[ P_Cartesian ] 0
| 10> end
| 11> *xyz 0 1
| 12>  C        2.8752320000    -0.8467590000     0.8420690000
| 13>  O        2.2498000000     0.2867560000     0.2697540000
| 14>  C        3.0317010000     1.2394620000    -0.3075430000
| 15>  N        2.4958580000     2.2521310000    -0.8669190000
| 16>  N        1.1485860000     2.3552280000    -0.7977590000
| 17>  C        4.4461170000     1.1040930000    -0.2899120000
| 18>  C        5.6397830000     0.9606560000    -0.2624370000
| 19>  H        2.0697810000    -1.4645480000     1.2360040000
| 20>  H        3.5464160000    -0.5599200000     1.6549100000
| 21>  H        3.4375530000    -1.4113530000     0.0942290000
| 22>  H        0.7984220000     2.9394760000    -1.5388530000
| 23>  H        0.6443460000     1.4835310000    -0.6854090000
| 24>  H        6.6986050000     0.8528370000    -0.2475250000
| 25> *
| 26>
| 27>                          ****END OF INPUT****
 Total Charge           Charge          ....    0
 Multiplicity           Mult            ....    1
 Number of Electrons    NEL             ....   52
 Basis Dimension        Dim             ....  128

MULLIKEN ATOMIC CHARGES
-----------------------
   0 C :    0.138695
   1 O :   -0.299748
   2 C :    0.039104
   3 N :   -0.122819
   4 N :   -0.052458
   5 C :    0.412029
   6 C :   -0.460044
   7 H :    0.039460
   8 H :    0.040650
   9 H :    0.038374
  10 H :    0.117724
  11 H :    0.103553
  12 H :    0.005481
Sum of atomic charges:   -0.0000000

LOEWDIN ATOMIC CHARGES
----------------------
   0 C :    0.065743
   1 O :   -0.093846
   2 C :   -0.045716
   3 N :   -0.058146
   4 N :    0.018667
   5 C :   -0.036384
   6 C :   -0.060743
   7 H :    0.027326
   8 H :    0.021915
   9 H :    0.020595
  10 H :    0.061681
  11 H :    0.042642
  12 H :    0.036267

  Mayer bond orders larger than 0.1
B(  0-C ,  1-O ) :   0.9623 B(  0-C ,  7-H ) :   0.9737 B(  0-C ,  8-H ) :   0.9654
B(  0-C ,  9-H ) :   0.9658 B(  1-O ,  2-C ) :   1.1023 B(  2-C ,  3-N ) :   1.7931
B(  2-C ,  4-N ) :   0.1030 B(  2-C ,  5-C ) :   0.9425 B(  3-N ,  4-N ) :   1.1293
B(  4-N , 10-H ) :   0.9622 B(  4-N , 11-H ) :   0.9347 B(  5-C ,  6-C ) :   2.2268
B(  5-C , 12-H ) :  -0.1058 B(  6-C , 12-H ) :   1.0958

FINAL SINGLE POINT ENERGY      -339.985107052666

DIPOLE MOMENT
-------------
                                X             Y             Z
Electronic contribution:      0.59034       3.18093      -1.52647
Nuclear contribution   :     -0.90310      -4.03670       1.55421
                        -----------------------------------------
Total Dipole Moment    :     -0.31277      -0.85577       0.02774
                        -----------------------------------------
Magnitude (a.u.)       :      0.91156
Magnitude (Debye)      :      2.31700

                             ****ORCA TERMINATED NORMALLY****
TOTAL RUN TIME: 0 days 0 hours 0 minutes 5 seconds 954 msec
