                         Program Version 3.0.3 - RELEASE   -
|  1> ! RI PBE def2-SVP def2-SVP/J NBO PAL2
|  2> % maxcore 2000
|  3> % output
|  4>     # printlevel mini
|  5>     print[ P_Basis ] 0
|  6>     print[ P_SCFInfo ] 1
|  7>     print[ P_SCFIterInfo ] 1
|  8>     print[ P_OrbEn ] 0
|  9>     print[ P_Cartesian ] 0
| 10> end
| 11> *xyz 0 1
| 12>  C        3.0216210000    -1.1040750000    -0.5115200000
| 13>  O        2.3558600000    -0.1562870000     0.3061950000
| 14>  C        3.0966290000     0.7008420000     1.0227480000
| 15>  N        2.5740010000     1.5851590000     1.7839110000
| 16>  O        1.1989420000     1.5328580000     1.7631310000
| 17>  C        4.5206060000     0.6564110000     0.9602650000
| 18>  C        5.7177710000     0.5931130000     0.8857030000
| 19>  H        2.2327260000    -1.6804540000    -0.9908230000
| 20>  H        3.6516750000    -1.7690330000     0.0836840000
| 21>  H        3.6313360000    -0.6127780000    -1.2732590000
| 22>  H        0.9576680000     2.2396480000     2.3684220000
| 23>  H        6.7803440000     0.5518960000     0.8321330000
| 24> *
| 25>
| 26>                          ****END OF INPUT****
 Total Charge           Charge          ....    0
 Multiplicity           Mult            ....    1
 Number of Electrons    NEL             ....   52
 Basis Dimension        Dim             ....  123

MULLIKEN ATOMIC CHARGES
-----------------------
   0 C :    0.141923
   1 O :   -0.252233
   2 C :    0.083239
   3 N :   -0.067252
   4 O :   -0.155938
   5 C :    0.384329
   6 C :   -0.439866
   7 H :    0.045012
   8 H :    0.038106
   9 H :    0.037576
  10 H :    0.173561
  11 H :    0.011544
Sum of atomic charges:   -0.0000000

LOEWDIN ATOMIC CHARGES
----------------------
   0 C :    0.070160
   1 O :   -0.060696
   2 C :   -0.042193
   3 N :   -0.040686
   4 O :   -0.038011
   5 C :   -0.035239
   6 C :   -0.043588
   7 H :    0.030453
   8 H :    0.021359
   9 H :    0.021167
  10 H :    0.078021
  11 H :    0.039253

  Mayer bond orders larger than 0.1
B(  0-C ,  1-O ) :   0.9579 B(  0-C ,  7-H ) :   0.9743 B(  0-C ,  8-H ) :   0.9654
B(  0-C ,  9-H ) :   0.9654 B(  1-O ,  2-C ) :   1.1745 B(  2-C ,  3-N ) :   1.7616
B(  2-C ,  5-C ) :   0.9467 B(  3-N ,  4-O ) :   1.0154 B(  3-N ,  6-C ) :   0.1016
B(  4-O , 10-H ) :   0.9748 B(  5-C ,  6-C ) :   2.2638 B(  5-C , 11-H ) :  -0.1043
B(  6-C , 11-H ) :   1.0943

FINAL SINGLE POINT ENERGY      -359.801184901553

DIPOLE MOMENT
-------------
                                X             Y             Z
Electronic contribution:     -1.32246       3.32238       2.84919
Nuclear contribution   :      1.62226      -3.69616      -3.17262
                        -----------------------------------------
Total Dipole Moment    :      0.29980      -0.37378      -0.32343
                        -----------------------------------------
Magnitude (a.u.)       :      0.57810
Magnitude (Debye)      :      1.46941

                             ****ORCA TERMINATED NORMALLY****
TOTAL RUN TIME: 0 days 0 hours 0 minutes 5 seconds 789 msec
