                         Program Version 3.0.3 - RELEASE   -
|  1> ! RI PBE def2-SVP def2-SVP/J NBO PAL2
|  2> % maxcore 2000
|  3> % output
|  4>     # printlevel mini
|  5>     print[ P_Basis ] 0
|  6>     print[ P_SCFInfo ] 1
|  7>     print[ P_SCFIterInfo ] 1
|  8>     print[ P_OrbEn ] 0
|  9>     print[ P_Cartesian ] 0
| 10> end
| 11> *xyz 0 1
| 12>  C        1.9752760000     0.8488170000     0.3748200000
| 13>  O        3.3140410000     0.3774250000     0.2428760000
| 14>  C        3.4966720000    -0.5770800000    -0.6704570000
| 15>  O        2.6189860000    -1.0252450000    -1.3647300000
| 16>  C        4.9120560000    -1.0177300000    -0.7292380000
| 17>  C        5.1350780000    -2.4874430000    -0.7599960000
| 18>  N        5.3417870000    -1.6891590000    -1.9464720000
| 19>  H        2.0067230000     1.6193920000     1.1415610000
| 20>  H        1.3113240000     0.0374250000     0.6758280000
| 21>  H        1.6207140000     1.2629080000    -0.5697630000
| 22>  H        5.6369490000    -0.3690740000    -0.2530790000
| 23>  H        4.2525670000    -3.1160980000    -0.7046280000
| 24>  H        6.0325180000    -2.8823440000    -0.2972740000
| 25>  H        4.5299100000    -1.7776950000    -2.5539490000
| 26> *
| 27>
| 28>                          ****END OF INPUT****
 Total Charge           Charge          ....    0
 Multiplicity           Mult            ....    1
 Number of Electrons    NEL             ....   54
 Basis Dimension        Dim             ....  133

MULLIKEN ATOMIC CHARGES
-----------------------
   0 C :    0.139932
   1 O :   -0.249358
   2 C :    0.160667
   3 O :   -0.206512
   4 C :   -0.113773
   5 C :    0.063324
   6 N :   -0.161233
   7 H :    0.043504
   8 H :    0.041818
   9 H :    0.041427
  10 H :    0.033329
  11 H :    0.047593
  12 H :    0.046028
  13 H :    0.113255
Sum of atomic charges:   -0.0000000

LOEWDIN ATOMIC CHARGES
----------------------
   0 C :    0.065600
   1 O :   -0.056400
   2 C :    0.029566
   3 O :   -0.163672
   4 C :   -0.036417
   5 C :    0.025581
   6 N :   -0.074844
   7 H :    0.028098
   8 H :    0.025227
   9 H :    0.025629
  10 H :    0.030095
  11 H :    0.021386
  12 H :    0.025530
  13 H :    0.054621

  Mayer bond orders larger than 0.1
B(  0-C ,  1-O ) :   0.9363 B(  0-C ,  7-H ) :   0.9755 B(  0-C ,  8-H ) :   0.9693
B(  0-C ,  9-H ) :   0.9680 B(  1-O ,  2-C ) :   1.2045 B(  2-C ,  3-O ) :   2.0467
B(  2-C ,  4-C ) :   0.9591 B(  4-C ,  5-C ) :   1.0137 B(  4-C ,  6-N ) :   1.0245
B(  4-C , 10-H ) :   0.9341 B(  5-C ,  6-N ) :   1.0018 B(  5-C , 11-H ) :   0.9396
B(  5-C , 12-H ) :   0.9430 B(  6-N , 13-H ) :   0.9356

FINAL SINGLE POINT ENERGY      -361.117329778002

DIPOLE MOMENT
-------------
                                X             Y             Z
Electronic contribution:      0.64675       0.07374      -1.38470
Nuclear contribution   :     -0.99002       0.18061       2.09074
                        -----------------------------------------
Total Dipole Moment    :     -0.34327       0.25436       0.70604
                        -----------------------------------------
Magnitude (a.u.)       :      0.82524
Magnitude (Debye)      :      2.09760

                             ****ORCA TERMINATED NORMALLY****
TOTAL RUN TIME: 0 days 0 hours 0 minutes 6 seconds 507 msec
