                         Program Version 3.0.3 - RELEASE   -
|  1> ! RI PBE def2-SVP def2-SVP/J NBO PAL2
|  2> % maxcore 2000
|  3> % output
|  4>     # printlevel mini
|  5>     print[ P_Basis ] 0
|  6>     print[ P_SCFInfo ] 1
|  7>     print[ P_SCFIterInfo ] 1
|  8>     print[ P_OrbEn ] 0
|  9>     print[ P_Cartesian ] 0
| 10> end
| 11> *xyz 0 1
| 12>  C        2.5680080000    -3.7121380000    -1.3724740000
| 13>  O        2.4349630000    -2.3539890000    -1.7246160000
| 14>  C        3.1800520000    -1.4973890000    -0.9220630000
| 15>  O        4.5581090000    -1.6629590000    -1.0370450000
| 16>  C        5.0757860000    -1.3039530000    -2.3061530000
| 17>  C        6.5572980000    -1.5808450000    -2.2994770000
| 18>  N        6.7978390000    -3.0036590000    -2.1291880000
| 19>  H        1.8643810000    -4.2724610000    -1.9876000000
| 20>  H        2.3222520000    -3.8697400000    -0.3136460000
| 21>  H        3.5813000000    -4.0814210000    -1.5585270000
| 22>  H        2.9557000000    -1.6628700000     0.1399670000
| 23>  H        2.8825090000    -0.4845140000    -1.2216360000
| 24>  H        4.8865600000    -0.2373150000    -2.4952160000
| 25>  H        4.5892820000    -1.8906220000    -3.0925590000
| 26>  H        7.0262660000    -0.9519690000    -1.5266760000
| 27>  H        6.9636660000    -1.2665180000    -3.2657460000
| 28>  H        6.4321980000    -3.2967050000    -1.2313120000
| 29>  H        7.7898220000    -3.2025240000    -2.1281140000
| 30> *
| 31>
| 32>                          ****END OF INPUT****
 Total Charge           Charge          ....    0
 Multiplicity           Mult            ....    1
 Number of Electrons    NEL             ....   58
 Basis Dimension        Dim             ....  153

MULLIKEN ATOMIC CHARGES
-----------------------
   0 C :    0.140965
   1 O :   -0.348171
   2 C :    0.334697
   3 O :   -0.361343
   4 C :    0.149235
   5 C :    0.086189
   6 N :   -0.227010
   7 H :    0.032573
   8 H :    0.000213
   9 H :    0.022277
  10 H :   -0.007893
  11 H :   -0.010769
  12 H :   -0.006676
  13 H :    0.011614
  14 H :   -0.001187
  15 H :    0.002922
  16 H :    0.094561
  17 H :    0.087803
Sum of atomic charges:   -0.0000000

LOEWDIN ATOMIC CHARGES
----------------------
   0 C :    0.049376
   1 O :   -0.144147
   2 C :    0.117976
   3 O :   -0.148789
   4 C :    0.055759
   5 C :   -0.002654
   6 N :   -0.112220
   7 H :    0.023541
   8 H :    0.006396
   9 H :    0.009259
  10 H :   -0.000546
  11 H :    0.000377
  12 H :    0.007559
  13 H :    0.010113
  14 H :    0.003102
  15 H :    0.024827
  16 H :    0.047954
  17 H :    0.052115

  Mayer bond orders larger than 0.1
B(  0-C ,  1-O ) :   0.9954 B(  0-C ,  7-H ) :   0.9764 B(  0-C ,  8-H ) :   0.9557
B(  0-C ,  9-H ) :   0.9604 B(  1-O ,  2-C ) :   1.0668 B(  2-C ,  3-O ) :   1.0537
B(  2-C , 10-H ) :   0.9328 B(  2-C , 11-H ) :   0.9316 B(  3-O ,  4-C ) :   0.9821
B(  4-C ,  5-C ) :   1.0954 B(  4-C , 12-H ) :   0.9289 B(  4-C , 13-H ) :   0.9229
B(  5-C ,  6-N ) :   1.0946 B(  5-C , 14-H ) :   0.9219 B(  5-C , 15-H ) :   0.9256
B(  6-N , 16-H ) :   0.9590 B(  6-N , 17-H ) :   0.9682

FINAL SINGLE POINT ENERGY      -363.497226243584

DIPOLE MOMENT
-------------
                                X             Y             Z
Electronic contribution:     -1.87221       1.22340       0.59186
Nuclear contribution   :      2.21241      -1.18133      -0.27232
                        -----------------------------------------
Total Dipole Moment    :      0.34020       0.04207       0.31954
                        -----------------------------------------
Magnitude (a.u.)       :      0.46863
Magnitude (Debye)      :      1.19116

                             ****ORCA TERMINATED NORMALLY****
TOTAL RUN TIME: 0 days 0 hours 0 minutes 7 seconds 573 msec
