                         Program Version 3.0.3 - RELEASE   -
|  1> ! RI PBE def2-SVP def2-SVP/J NBO PAL2
|  2> % maxcore 2000
|  3> % output
|  4>     # printlevel mini
|  5>     print[ P_Basis ] 0
|  6>     print[ P_SCFInfo ] 1
|  7>     print[ P_SCFIterInfo ] 1
|  8>     print[ P_OrbEn ] 0
|  9>     print[ P_Cartesian ] 0
| 10> end
| 11> *xyz 0 1
| 12>  C        1.3567790000    -0.1653110000    -0.1279680000
| 13>  O        2.7738820000    -0.0873970000    -0.2404220000
| 14>  C        3.3081700000    -0.7834310000    -1.2541570000
| 15>  O        2.6518630000    -1.4213610000    -2.0335320000
| 16>  C        4.8052610000    -0.6665210000    -1.2621570000
| 17>  C        5.4395350000    -1.2602970000    -2.5032550000
| 18>  N        6.8886180000    -1.2211840000    -2.3806690000
| 19>  H        1.0928970000     0.4422260000     0.7349590000
| 20>  H        1.0381700000    -1.1979910000     0.0215500000
| 21>  H        0.8767910000     0.2221760000    -1.0277920000
| 22>  H        5.1912470000    -1.1717120000    -0.3705590000
| 23>  H        5.0693490000     0.3892120000    -1.1422180000
| 24>  H        5.0469050000    -0.7440150000    -3.3910930000
| 25>  H        5.1277820000    -2.3031100000    -2.5932950000
| 26>  H        7.2231200000    -0.2649100000    -2.3979860000
| 27>  H        7.3223500000    -1.6954830000    -3.1621960000
| 28> *
| 29>
| 30>                          ****END OF INPUT****
 Total Charge           Charge          ....    0
 Multiplicity           Mult            ....    1
 Number of Electrons    NEL             ....   56
 Basis Dimension        Dim             ....  143

MULLIKEN ATOMIC CHARGES
-----------------------
   0 C :    0.144347
   1 O :   -0.260732
   2 C :    0.092923
   3 O :   -0.199470
   4 C :   -0.005443
   5 C :    0.055448
   6 N :   -0.204670
   7 H :    0.035905
   8 H :    0.035512
   9 H :    0.037476
  10 H :    0.043404
  11 H :    0.027192
  12 H :    0.002489
  13 H :    0.020722
  14 H :    0.085615
  15 H :    0.089281
Sum of atomic charges:    0.0000000

LOEWDIN ATOMIC CHARGES
----------------------
   0 C :    0.063065
   1 O :   -0.070476
   2 C :    0.044914
   3 O :   -0.152007
   4 C :   -0.073916
   5 C :    0.009904
   6 N :   -0.111878
   7 H :    0.025132
   8 H :    0.022422
   9 H :    0.022755
  10 H :    0.048872
  11 H :    0.038334
  12 H :    0.003701
  13 H :    0.025997
  14 H :    0.049165
  15 H :    0.054016

  Mayer bond orders larger than 0.1
B(  0-C ,  1-O ) :   0.9424 B(  0-C ,  7-H ) :   0.9755 B(  0-C ,  8-H ) :   0.9692
B(  0-C ,  9-H ) :   0.9692 B(  1-O ,  2-C ) :   1.2007 B(  2-C ,  3-O ) :   2.0599
B(  2-C ,  4-C ) :   0.9783 B(  4-C ,  5-C ) :   1.0916 B(  4-C , 10-H ) :   0.9008
B(  4-C , 11-H ) :   0.9165 B(  5-C ,  6-N ) :   1.0977 B(  5-C , 12-H ) :   0.9348
B(  5-C , 13-H ) :   0.9301 B(  6-N , 14-H ) :   0.9690 B(  6-N , 15-H ) :   0.9642

FINAL SINGLE POINT ENERGY      -362.342904550567

DIPOLE MOMENT
-------------
                                X             Y             Z
Electronic contribution:     -2.71016      -0.23503       0.69589
Nuclear contribution   :      2.81495       0.79324      -0.63023
                        -----------------------------------------
Total Dipole Moment    :      0.10479       0.55822       0.06566
                        -----------------------------------------
Magnitude (a.u.)       :      0.57175
Magnitude (Debye)      :      1.45328

                             ****ORCA TERMINATED NORMALLY****
TOTAL RUN TIME: 0 days 0 hours 0 minutes 6 seconds 641 msec
