                         Program Version 3.0.3 - RELEASE   -
|  1> ! RI PBE def2-SVP def2-SVP/J NBO PAL2
|  2> % maxcore 2000
|  3> % output
|  4>     # printlevel mini
|  5>     print[ P_Basis ] 0
|  6>     print[ P_SCFInfo ] 1
|  7>     print[ P_SCFIterInfo ] 1
|  8>     print[ P_OrbEn ] 0
|  9>     print[ P_Cartesian ] 0
| 10> end
| 11> *xyz 0 1
| 12>  C        1.1321860000    -0.2781700000     0.1047980000
| 13>  O        2.5454130000    -0.1555410000     0.0780850000
| 14>  C        3.2038030000    -0.9306260000     0.9670250000
| 15>  O        2.6279820000    -1.6745100000     1.7293750000
| 16>  C        4.6388980000    -0.7370450000     0.8649290000
| 17>  C        5.4474150000    -1.4363610000     1.6828970000
| 18>  N        6.7930450000    -1.3849790000     1.7280790000
| 19>  H        0.7585550000     0.4012550000    -0.6592300000
| 20>  H        0.7354240000    -0.0023010000     1.0835490000
| 21>  H        0.8255290000    -1.3021360000    -0.1164120000
| 22>  H        5.0159890000    -0.0342690000     0.1320680000
| 23>  H        4.9831810000    -2.1197320000     2.3882110000
| 24>  H        7.3119490000    -0.7832290000     1.1153540000
| 25>  H        7.3069290000    -1.9480660000     2.3765720000
| 26> *
| 27>
| 28>                          ****END OF INPUT****
 Total Charge           Charge          ....    0
 Multiplicity           Mult            ....    1
 Number of Electrons    NEL             ....   54
 Basis Dimension        Dim             ....  133

MULLIKEN ATOMIC CHARGES
-----------------------
   0 C :    0.151499
   1 O :   -0.275223
   2 C :    0.147576
   3 O :   -0.228829
   4 C :   -0.122117
   5 C :    0.042150
   6 N :   -0.046808
   7 H :    0.027438
   8 H :    0.028253
   9 H :    0.027541
  10 H :   -0.013473
  11 H :    0.020461
  12 H :    0.116594
  13 H :    0.124938
Sum of atomic charges:   -0.0000000

LOEWDIN ATOMIC CHARGES
----------------------
   0 C :    0.058792
   1 O :   -0.081572
   2 C :    0.033440
   3 O :   -0.193405
   4 C :   -0.171771
   5 C :    0.046913
   6 N :    0.036560
   7 H :    0.021144
   8 H :    0.018967
   9 H :    0.018797
  10 H :    0.023100
  11 H :    0.034312
  12 H :    0.076913
  13 H :    0.077810

  Mayer bond orders larger than 0.1
B(  0-C ,  1-O ) :   0.9578 B(  0-C ,  7-H ) :   0.9753 B(  0-C ,  8-H ) :   0.9674
B(  0-C ,  9-H ) :   0.9676 B(  1-O ,  2-C ) :   1.1587 B(  2-C ,  3-O ) :   2.0175
B(  2-C ,  4-C ) :   1.0695 B(  4-C ,  5-C ) :   1.6327 B(  4-C , 10-H ) :   0.9560
B(  5-C ,  6-N ) :   1.3146 B(  5-C , 11-H ) :   0.9337 B(  6-N , 12-H ) :   0.9553
B(  6-N , 13-H ) :   0.9559

FINAL SINGLE POINT ENERGY      -361.149181809492

DIPOLE MOMENT
-------------
                                X             Y             Z
Electronic contribution:      0.74232      -0.60257       0.70752
Nuclear contribution   :      0.68258       0.74728      -0.75842
                        -----------------------------------------
Total Dipole Moment    :      1.42490       0.14471      -0.05090
                        -----------------------------------------
Magnitude (a.u.)       :      1.43313
Magnitude (Debye)      :      3.64274

                             ****ORCA TERMINATED NORMALLY****
TOTAL RUN TIME: 0 days 0 hours 0 minutes 6 seconds 172 msec
