                         Program Version 3.0.3 - RELEASE   -
|  1> ! RI PBE def2-SVP def2-SVP/J NBO PAL2
|  2> % maxcore 2000
|  3> % output
|  4>     # printlevel mini
|  5>     print[ P_Basis ] 0
|  6>     print[ P_SCFInfo ] 1
|  7>     print[ P_SCFIterInfo ] 1
|  8>     print[ P_OrbEn ] 0
|  9>     print[ P_Cartesian ] 0
| 10> end
| 11> *xyz 0 1
| 12>  C        1.3329560000     0.2391040000    -0.7364100000
| 13>  O        2.7558510000     0.1919500000    -0.6746950000
| 14>  C        3.2923240000    -1.0280170000    -0.7571280000
| 15>  O        2.6472300000    -2.0335500000    -0.8925360000
| 16>  C        4.7967270000    -0.9885290000    -0.6027130000
| 17>  C        5.1265450000    -0.8858920000     0.8897990000
| 18>  N        5.3505370000    -2.1468700000    -1.2708910000
| 19>  H        1.0667130000     1.2903740000    -0.6531380000
| 20>  H        0.8935420000    -0.3324010000     0.0823970000
| 21>  H        0.9774630000    -0.1710580000    -1.6823750000
| 22>  H        5.1494590000    -0.0768220000    -1.0964620000
| 23>  H        4.7417040000    -1.7569730000     1.4261880000
| 24>  H        4.7035250000     0.0180780000     1.3338770000
| 25>  H        6.2105270000    -0.8520020000     1.0233380000
| 26>  H        4.7379780000    -2.9415680000    -1.1251550000
| 27>  H        6.2628100000    -2.3740220000    -0.8980860000
| 28> *
| 29>
| 30>                          ****END OF INPUT****
 Total Charge           Charge          ....    0
 Multiplicity           Mult            ....    1
 Number of Electrons    NEL             ....   56
 Basis Dimension        Dim             ....  143

MULLIKEN ATOMIC CHARGES
-----------------------
   0 C :    0.146435
   1 O :   -0.255832
   2 C :    0.109277
   3 O :   -0.199858
   4 C :   -0.017855
   5 C :    0.008031
   6 N :   -0.167863
   7 H :    0.036893
   8 H :    0.038240
   9 H :    0.040805
  10 H :    0.016463
  11 H :    0.017735
  12 H :    0.020397
  13 H :    0.031229
  14 H :    0.094095
  15 H :    0.081808
Sum of atomic charges:   -0.0000000

LOEWDIN ATOMIC CHARGES
----------------------
   0 C :    0.066290
   1 O :   -0.059562
   2 C :    0.046564
   3 O :   -0.148367
   4 C :   -0.026359
   5 C :   -0.068148
   6 N :   -0.093827
   7 H :    0.026202
   8 H :    0.023516
   9 H :    0.025014
  10 H :    0.028394
  11 H :    0.025561
  12 H :    0.028223
  13 H :    0.027392
  14 H :    0.048478
  15 H :    0.050629

  Mayer bond orders larger than 0.1
B(  0-C ,  1-O ) :   0.9374 B(  0-C ,  7-H ) :   0.9756 B(  0-C ,  8-H ) :   0.9692
B(  0-C ,  9-H ) :   0.9702 B(  1-O ,  2-C ) :   1.2080 B(  2-C ,  3-O ) :   2.0608
B(  2-C ,  4-C ) :   0.9351 B(  4-C ,  5-C ) :   1.0544 B(  4-C ,  6-N ) :   1.1246
B(  4-C , 10-H ) :   0.8947 B(  5-C , 11-H ) :   0.9534 B(  5-C , 12-H ) :   0.9459
B(  5-C , 13-H ) :   0.9615 B(  6-N , 14-H ) :   0.9448 B(  6-N , 15-H ) :   0.9625

FINAL SINGLE POINT ENERGY      -362.344859420603

DIPOLE MOMENT
-------------
                                X             Y             Z
Electronic contribution:     -2.19310      -0.83125      -2.75677
Nuclear contribution   :      2.18866       1.33106       3.32708
                        -----------------------------------------
Total Dipole Moment    :     -0.00443       0.49982       0.57031
                        -----------------------------------------
Magnitude (a.u.)       :      0.75834
Magnitude (Debye)      :      1.92756

                             ****ORCA TERMINATED NORMALLY****
TOTAL RUN TIME: 0 days 0 hours 0 minutes 7 seconds 486 msec
