                         Program Version 3.0.3 - RELEASE   -
|  1> ! RI PBE def2-SVP def2-SVP/J NBO PAL2
|  2> % maxcore 2000
|  3> % output
|  4>     # printlevel mini
|  5>     print[ P_Basis ] 0
|  6>     print[ P_SCFInfo ] 1
|  7>     print[ P_SCFIterInfo ] 1
|  8>     print[ P_OrbEn ] 0
|  9>     print[ P_Cartesian ] 0
| 10> end
| 11> *xyz 0 1
| 12>  C        2.9350710000    -2.2095790000     0.9892570000
| 13>  O        4.1030020000    -1.4440900000     0.7186500000
| 14>  C        3.9013810000    -0.1221250000     0.6401090000
| 15>  O        2.8292800000     0.4125830000     0.7515120000
| 16>  N        5.1041560000     0.5377900000     0.4839440000
| 17>  C        5.2396850000     1.6249060000    -0.4442070000
| 18>  C        5.9695830000     0.3438580000    -0.6530290000
| 19>  H        2.1868120000    -2.0651460000     0.2085990000
| 20>  H        2.5018240000    -1.9237730000     1.9487940000
| 21>  H        3.2614690000    -3.2471280000     1.0152260000
| 22>  H        5.7693010000     2.4942530000    -0.0713560000
| 23>  H        4.3901470000     1.8354260000    -1.0855420000
| 24>  H        7.0287100000     0.2755620000    -0.4310480000
| 25>  H        5.6181790000    -0.3101360000    -1.4444090000
| 26> *
| 27>
| 28>                          ****END OF INPUT****
 Total Charge           Charge          ....    0
 Multiplicity           Mult            ....    1
 Number of Electrons    NEL             ....   54
 Basis Dimension        Dim             ....  133

MULLIKEN ATOMIC CHARGES
-----------------------
   0 C :    0.148594
   1 O :   -0.263067
   2 C :    0.152216
   3 O :   -0.207178
   4 N :   -0.218205
   5 C :    0.046149
   6 C :    0.035591
   7 H :    0.038022
   8 H :    0.036884
   9 H :    0.037366
  10 H :    0.047200
  11 H :    0.049380
  12 H :    0.049328
  13 H :    0.047720
Sum of atomic charges:   -0.0000000

LOEWDIN ATOMIC CHARGES
----------------------
   0 C :    0.066536
   1 O :   -0.074458
   2 C :    0.017623
   3 O :   -0.173387
   4 N :   -0.067524
   5 C :    0.031346
   6 C :    0.028503
   7 H :    0.021797
   8 H :    0.023632
   9 H :    0.025449
  10 H :    0.026840
  11 H :    0.024359
  12 H :    0.026370
  13 H :    0.022915

  Mayer bond orders larger than 0.1
B(  0-C ,  1-O ) :   0.9479 B(  0-C ,  7-H ) :   0.9694 B(  0-C ,  8-H ) :   0.9699
B(  0-C ,  9-H ) :   0.9752 B(  1-O ,  2-C ) :   1.1825 B(  2-C ,  3-O ) :   2.0563
B(  2-C ,  4-N ) :   1.0945 B(  4-N ,  5-C ) :   0.9586 B(  4-N ,  6-C ) :   0.9433
B(  5-C ,  6-C ) :   1.0771 B(  5-C , 10-H ) :   0.9499 B(  5-C , 11-H ) :   0.9435
B(  6-C , 12-H ) :   0.9479 B(  6-C , 13-H ) :   0.9447

FINAL SINGLE POINT ENERGY      -361.117358653621

DIPOLE MOMENT
-------------
                                X             Y             Z
Electronic contribution:     -0.43620       1.28265       1.69842
Nuclear contribution   :      0.89590      -1.70739      -2.24922
                        -----------------------------------------
Total Dipole Moment    :      0.45970      -0.42474      -0.55080
                        -----------------------------------------
Magnitude (a.u.)       :      0.83374
Magnitude (Debye)      :      2.11920

                             ****ORCA TERMINATED NORMALLY****
TOTAL RUN TIME: 0 days 0 hours 0 minutes 6 seconds 141 msec
