                         Program Version 3.0.3 - RELEASE   -
|  1> ! RI PBE def2-SVP def2-SVP/J NBO PAL2
|  2> % maxcore 2000
|  3> % output
|  4>     # printlevel mini
|  5>     print[ P_Basis ] 0
|  6>     print[ P_SCFInfo ] 1
|  7>     print[ P_SCFIterInfo ] 1
|  8>     print[ P_OrbEn ] 0
|  9>     print[ P_Cartesian ] 0
| 10> end
| 11> *xyz 0 1
| 12>  C        1.2214080000    -0.1348620000    -0.4554720000
| 13>  O        2.6324790000    -0.0908260000    -0.2992060000
| 14>  C        3.0786750000    -0.5799260000     0.8774830000
| 15>  O        2.3400660000    -1.0208060000     1.7302040000
| 16>  N        4.4297350000    -0.5162140000     0.9764060000
| 17>  C        5.2999740000     0.0092090000    -0.0442310000
| 18>  C        5.0629230000    -1.0014390000     2.1751770000
| 19>  H        1.0211620000     0.2880790000    -1.4382900000
| 20>  H        0.7259360000     0.4530360000     0.3183000000
| 21>  H        0.8561790000    -1.1613640000    -0.4030080000
| 22>  H        4.7224230000     0.3452510000    -0.8992010000
| 23>  H        6.0074760000    -0.7591550000    -0.3758950000
| 24>  H        5.8788750000     0.8543140000     0.3451390000
| 25>  H        4.2979250000    -1.3663910000     2.8556100000
| 26>  H        5.6283130000    -0.2002800000     2.6636910000
| 27>  H        5.7570300000    -1.8162250000     1.9416930000
| 28> *
| 29>
| 30>                          ****END OF INPUT****
 Total Charge           Charge          ....    0
 Multiplicity           Mult            ....    1
 Number of Electrons    NEL             ....   56
 Basis Dimension        Dim             ....  143

MULLIKEN ATOMIC CHARGES
-----------------------
   0 C :    0.162606
   1 O :   -0.292871
   2 C :    0.197283
   3 O :   -0.250348
   4 N :   -0.295908
   5 C :    0.093551
   6 C :    0.087246
   7 H :    0.027078
   8 H :    0.034162
   9 H :    0.031030
  10 H :    0.050012
  11 H :    0.024999
  12 H :    0.024273
  13 H :    0.055183
  14 H :    0.025744
  15 H :    0.025961
Sum of atomic charges:   -0.0000000

LOEWDIN ATOMIC CHARGES
----------------------
   0 C :    0.066627
   1 O :   -0.090164
   2 C :    0.028858
   3 O :   -0.207630
   4 N :   -0.045395
   5 C :    0.015877
   6 C :    0.018077
   7 H :    0.022051
   8 H :    0.020902
   9 H :    0.020313
  10 H :    0.031548
  11 H :    0.020993
  12 H :    0.020828
  13 H :    0.035942
  14 H :    0.020684
  15 H :    0.020491

  Mayer bond orders larger than 0.1
B(  0-C ,  1-O ) :   0.9522 B(  0-C ,  7-H ) :   0.9734 B(  0-C ,  8-H ) :   0.9698
B(  0-C ,  9-H ) :   0.9693 B(  1-O ,  2-C ) :   1.1285 B(  2-C ,  3-O ) :   1.9728
B(  2-C ,  4-N ) :   1.1663 B(  4-N ,  5-C ) :   0.9989 B(  4-N ,  6-C ) :   1.0069
B(  5-C , 10-H ) :   0.9588 B(  5-C , 11-H ) :   0.9626 B(  5-C , 12-H ) :   0.9626
B(  6-C , 13-H ) :   0.9513 B(  6-C , 14-H ) :   0.9654 B(  6-C , 15-H ) :   0.9650

FINAL SINGLE POINT ENERGY      -362.355586081627

DIPOLE MOMENT
-------------
                                X             Y             Z
Electronic contribution:     -3.22060      -0.54745       0.65747
Nuclear contribution   :      3.82069       0.84714      -1.21817
                        -----------------------------------------
Total Dipole Moment    :      0.60009       0.29969      -0.56069
                        -----------------------------------------
Magnitude (a.u.)       :      0.87424
Magnitude (Debye)      :      2.22214

                             ****ORCA TERMINATED NORMALLY****
TOTAL RUN TIME: 0 days 0 hours 0 minutes 6 seconds 334 msec
