                         Program Version 3.0.3 - RELEASE   -
|  1> ! RI PBE def2-SVP def2-SVP/J NBO PAL2
|  2> % maxcore 2000
|  3> % output
|  4>     # printlevel mini
|  5>     print[ P_Basis ] 0
|  6>     print[ P_SCFInfo ] 1
|  7>     print[ P_SCFIterInfo ] 1
|  8>     print[ P_OrbEn ] 0
|  9>     print[ P_Cartesian ] 0
| 10> end
| 11> *xyz 0 1
| 12>  C        1.5572700000    -0.3196100000    -0.7350690000
| 13>  O        2.9226050000    -0.1343190000    -0.3820080000
| 14>  C        3.1348360000     0.1314880000     0.9187100000
| 15>  O        2.2723340000     0.2158990000     1.7546430000
| 16>  N        4.4723980000     0.2890550000     1.1386150000
| 17>  C        4.9968660000     0.5717950000     2.3864100000
| 18>  C        6.2899930000     0.7329220000     2.6456270000
| 19>  H        1.5540700000    -0.5225210000    -1.8038350000
| 20>  H        0.9771860000     0.5780330000    -0.5171950000
| 21>  H        1.1278460000    -1.1597190000    -0.1877530000
| 22>  H        5.0858840000     0.1914340000     0.3466200000
| 23>  H        4.2341400000     0.6514100000     3.1515590000
| 24>  H        7.0512780000     0.6526220000     1.8775710000
| 25>  H        6.6137950000     0.9525010000     3.6526040000
| 26> *
| 27>
| 28>                          ****END OF INPUT****
 Total Charge           Charge          ....    0
 Multiplicity           Mult            ....    1
 Number of Electrons    NEL             ....   54
 Basis Dimension        Dim             ....  133

MULLIKEN ATOMIC CHARGES
-----------------------
   0 C :    0.148253
   1 O :   -0.283996
   2 C :    0.162766
   3 O :   -0.224869
   4 N :   -0.081366
   5 C :    0.037111
   6 C :   -0.072759
   7 H :    0.037880
   8 H :    0.042004
   9 H :    0.037987
  10 H :    0.124109
  11 H :    0.031072
  12 H :    0.011890
  13 H :    0.029917
Sum of atomic charges:   -0.0000000

LOEWDIN ATOMIC CHARGES
----------------------
   0 C :    0.067921
   1 O :   -0.089050
   2 C :    0.030879
   3 O :   -0.185090
   4 N :    0.030831
   5 C :    0.019188
   6 C :   -0.120670
   7 H :    0.026190
   8 H :    0.023978
   9 H :    0.023374
  10 H :    0.085411
  11 H :    0.035599
  12 H :    0.019994
  13 H :    0.031445

  Mayer bond orders larger than 0.1
B(  0-C ,  1-O ) :   0.9471 B(  0-C ,  7-H ) :   0.9749 B(  0-C ,  8-H ) :   0.9703
B(  0-C ,  9-H ) :   0.9697 B(  1-O ,  2-C ) :   1.1656 B(  2-C ,  3-O ) :   2.0139
B(  2-C ,  4-N ) :   1.1292 B(  4-N ,  5-C ) :   1.1266 B(  4-N , 10-H ) :   0.9168
B(  5-C ,  6-C ) :   1.9008 B(  5-C , 11-H ) :   0.9516 B(  6-C , 12-H ) :   0.9515
B(  6-C , 13-H ) :   0.9452

FINAL SINGLE POINT ENERGY      -361.151028708233

DIPOLE MOMENT
-------------
                                X             Y             Z
Electronic contribution:     -1.01614      -0.08364       0.01418
Nuclear contribution   :      1.29340      -0.05038      -0.85246
                        -----------------------------------------
Total Dipole Moment    :      0.27726      -0.13402      -0.83829
                        -----------------------------------------
Magnitude (a.u.)       :      0.89306
Magnitude (Debye)      :      2.26999

                             ****ORCA TERMINATED NORMALLY****
TOTAL RUN TIME: 0 days 0 hours 0 minutes 6 seconds 229 msec
