                         Program Version 3.0.3 - RELEASE   -
|  1> ! RI PBE def2-SVP def2-SVP/J NBO PAL2
|  2> % maxcore 2000
|  3> % output
|  4>     # printlevel mini
|  5>     print[ P_Basis ] 0
|  6>     print[ P_SCFInfo ] 1
|  7>     print[ P_SCFIterInfo ] 1
|  8>     print[ P_OrbEn ] 0
|  9>     print[ P_Cartesian ] 0
| 10> end
| 11> *xyz 0 1
| 12>  C        2.4941180000    -0.7954610000     0.9745510000
| 13>  O        2.5405900000    -0.0607750000    -0.2280900000
| 14>  C        2.8365650000     1.2803730000    -0.0815690000
| 15>  O        4.2004950000     1.5468330000     0.1501570000
| 16>  N        4.4721270000     1.5913110000     1.5069300000
| 17>  C        5.7047130000     1.7741530000     1.7332150000
| 18>  C        6.2003230000     1.8666800000     3.1291560000
| 19>  H        2.0847920000    -1.7758450000     0.7305350000
| 20>  H        1.8449910000    -0.3059950000     1.7112000000
| 21>  H        3.4874290000    -0.9186250000     1.4154820000
| 22>  H        2.2544570000     1.7331460000     0.7315030000
| 23>  H        2.6152510000     1.7493380000    -1.0408750000
| 24>  H        6.4059550000     1.8656990000     0.9012670000
| 25>  H        5.3775670000     1.7570310000     3.8352750000
| 26>  H        6.6906830000     2.8295730000     3.3006410000
| 27>  H        6.9455540000     1.0901530000     3.3258430000
| 28> *
| 29>
| 30>                          ****END OF INPUT****
 Total Charge           Charge          ....    0
 Multiplicity           Mult            ....    1
 Number of Electrons    NEL             ....   56
 Basis Dimension        Dim             ....  143

MULLIKEN ATOMIC CHARGES
-----------------------
   0 C :    0.141410
   1 O :   -0.327131
   2 C :    0.316539
   3 O :   -0.272441
   4 N :   -0.006346
   5 C :   -0.084584
   6 C :    0.026219
   7 H :    0.030608
   8 H :    0.009618
   9 H :    0.019867
  10 H :   -0.008487
  11 H :    0.020124
  12 H :    0.013243
  13 H :    0.034277
  14 H :    0.042533
  15 H :    0.044550
Sum of atomic charges:   -0.0000000

LOEWDIN ATOMIC CHARGES
----------------------
   0 C :    0.050900
   1 O :   -0.134888
   2 C :    0.104565
   3 O :   -0.088227
   4 N :   -0.007304
   5 C :   -0.030994
   6 C :   -0.071389
   7 H :    0.022276
   8 H :    0.009569
   9 H :    0.008624
  10 H :   -0.009109
  11 H :    0.016662
  12 H :    0.007665
  13 H :    0.037956
  14 H :    0.041877
  15 H :    0.041818

  Mayer bond orders larger than 0.1
B(  0-C ,  1-O ) :   0.9940 B(  0-C ,  7-H ) :   0.9744 B(  0-C ,  8-H ) :   0.9573
B(  0-C ,  9-H ) :   0.9617 B(  1-O ,  2-C ) :   1.1175 B(  2-C ,  3-O ) :   0.9985
B(  2-C , 10-H ) :   0.9287 B(  2-C , 11-H ) :   0.9499 B(  3-O ,  4-N ) :   0.9408
B(  3-O ,  5-C ) :   0.1022 B(  4-N ,  5-C ) :   1.9006 B(  5-C ,  6-C ) :   1.0776
B(  5-C , 12-H ) :   0.9408 B(  6-C , 13-H ) :   0.9534 B(  6-C , 14-H ) :   0.9459
B(  6-C , 15-H ) :   0.9466

FINAL SINGLE POINT ENERGY      -362.260797708386

DIPOLE MOMENT
-------------
                                X             Y             Z
Electronic contribution:     -1.02946       1.09084      -4.87440
Nuclear contribution   :      1.33567      -0.96782       5.44371
                        -----------------------------------------
Total Dipole Moment    :      0.30621       0.12302       0.56931
                        -----------------------------------------
Magnitude (a.u.)       :      0.65804
Magnitude (Debye)      :      1.67260

                             ****ORCA TERMINATED NORMALLY****
TOTAL RUN TIME: 0 days 0 hours 0 minutes 7 seconds 34 msec
