                         Program Version 3.0.3 - RELEASE   -
|  1> ! RI PBE def2-SVP def2-SVP/J NBO PAL2
|  2> % maxcore 2000
|  3> % output
|  4>     # printlevel mini
|  5>     print[ P_Basis ] 0
|  6>     print[ P_SCFInfo ] 1
|  7>     print[ P_SCFIterInfo ] 1
|  8>     print[ P_OrbEn ] 0
|  9>     print[ P_Cartesian ] 0
| 10> end
| 11> *xyz 0 1
| 12>  C        1.1062940000    -0.1516150000     0.5487770000
| 13>  O        1.5296850000     0.5753660000     1.6951730000
| 14>  N        2.5338130000     1.4394670000     1.3820740000
| 15>  C        2.4732640000     2.8960270000     1.3683220000
| 16>  C        4.0121470000     2.8583280000     1.4529290000
| 17>  C        3.8800760000     1.3359560000     1.6315620000
| 18>  O        4.6027210000     0.4197190000     1.8911480000
| 19>  H        1.9234110000    -0.7589710000     0.1529610000
| 20>  H        0.7307390000     0.5222190000    -0.2268950000
| 21>  H        0.3001990000    -0.7982500000     0.8944210000
| 22>  H        1.9875020000     3.3163400000     2.2526110000
| 23>  H        2.0400470000     3.3196740000     0.4602860000
| 24>  H        4.4382060000     3.3513790000     2.3255770000
| 25>  H        4.5428860000     3.1589610000     0.5510750000
| 26> *
| 27>
| 28>                          ****END OF INPUT****
 Total Charge           Charge          ....    0
 Multiplicity           Mult            ....    1
 Number of Electrons    NEL             ....   54
 Basis Dimension        Dim             ....  133

MULLIKEN ATOMIC CHARGES
-----------------------
   0 C :    0.150246
   1 O :   -0.264920
   2 N :   -0.148078
   3 C :    0.170101
   4 C :   -0.104091
   5 C :    0.092989
   6 O :   -0.153340
   7 H :    0.039010
   8 H :    0.019183
   9 H :    0.043086
  10 H :    0.028336
  11 H :    0.023065
  12 H :    0.051962
  13 H :    0.052451
Sum of atomic charges:   -0.0000000

LOEWDIN ATOMIC CHARGES
----------------------
   0 C :    0.054374
   1 O :   -0.096945
   2 N :    0.022488
   3 C :    0.039630
   4 C :   -0.056946
   5 C :    0.009350
   6 O :   -0.149052
   7 H :    0.018566
   8 H :    0.009955
   9 H :    0.028711
  10 H :    0.021516
  11 H :    0.016859
  12 H :    0.041871
  13 H :    0.039623

  Mayer bond orders larger than 0.1
B(  0-C ,  1-O ) :   0.9583 B(  0-C ,  7-H ) :   0.9732 B(  0-C ,  8-H ) :   0.9688
B(  0-C ,  9-H ) :   0.9737 B(  1-O ,  2-N ) :   0.9093 B(  2-N ,  3-C ) :   1.0010
B(  2-N ,  5-C ) :   1.1280 B(  2-N ,  6-O ) :   0.1083 B(  3-C ,  4-C ) :   1.1080
B(  3-C , 10-H ) :   0.9301 B(  3-C , 11-H ) :   0.9367 B(  4-C ,  5-C ) :   0.9320
B(  4-C , 12-H ) :   0.9158 B(  4-C , 13-H ) :   0.9176 B(  5-C ,  6-O ) :   2.2004

FINAL SINGLE POINT ENERGY      -361.072486638233

DIPOLE MOMENT
-------------
                                X             Y             Z
Electronic contribution:      2.81441      -1.94522       2.61584
Nuclear contribution   :     -3.69228       2.78945      -3.28148
                        -----------------------------------------
Total Dipole Moment    :     -0.87786       0.84423      -0.66563
                        -----------------------------------------
Magnitude (a.u.)       :      1.38796
Magnitude (Debye)      :      3.52792

                             ****ORCA TERMINATED NORMALLY****
TOTAL RUN TIME: 0 days 0 hours 0 minutes 6 seconds 376 msec
