                         Program Version 3.0.3 - RELEASE   -
|  1> ! RI PBE def2-SVP def2-SVP/J NBO PAL2
|  2> % maxcore 2000
|  3> % output
|  4>     # printlevel mini
|  5>     print[ P_Basis ] 0
|  6>     print[ P_SCFInfo ] 1
|  7>     print[ P_SCFIterInfo ] 1
|  8>     print[ P_OrbEn ] 0
|  9>     print[ P_Cartesian ] 0
| 10> end
| 11> *xyz 0 1
| 12>  C        3.1523770000    -0.8160190000     0.4314280000
| 13>  O        2.1248550000    -0.2958240000    -0.4042500000
| 14>  N        2.6498710000     0.4408430000    -1.4225000000
| 15>  C        2.8708630000     1.7809780000    -1.3628360000
| 16>  C        3.3647330000     2.1539780000    -2.5897140000
| 17>  C        3.4328540000     0.9924980000    -3.3950240000
| 18>  C        2.9790200000    -0.0632060000    -2.6415030000
| 19>  H        2.6361880000    -1.3818130000     1.2062000000
| 20>  H        3.7329150000    -0.0081670000     0.8850420000
| 21>  H        3.8164560000    -1.4771010000    -0.1319580000
| 22>  H        2.6448840000     2.3399030000    -0.4699300000
| 23>  H        3.6361920000     3.1577000000    -2.8764590000
| 24>  H        3.7666880000     0.9330140000    -4.4189330000
| 25>  H        2.8471960000    -1.1095740000    -2.8616840000
| 26> *
| 27>
| 28>                          ****END OF INPUT****
 Total Charge           Charge          ....    0
 Multiplicity           Mult            ....    1
 Number of Electrons    NEL             ....   52
 Basis Dimension        Dim             ....  133

MULLIKEN ATOMIC CHARGES
-----------------------
   0 C :    0.143496
   1 O :   -0.262740
   2 N :   -0.022104
   3 C :    0.068864
   4 C :   -0.029776
   5 C :   -0.028636
   6 C :    0.067781
   7 H :    0.046944
   8 H :    0.031971
   9 H :    0.032065
  10 H :   -0.003924
  11 H :   -0.020393
  12 H :   -0.019454
  13 H :   -0.004093
Sum of atomic charges:   -0.0000000

LOEWDIN ATOMIC CHARGES
----------------------
   0 C :    0.055777
   1 O :   -0.087692
   2 N :    0.147141
   3 C :   -0.048666
   4 C :   -0.084921
   5 C :   -0.084173
   6 C :   -0.048977
   7 H :    0.030781
   8 H :    0.014854
   9 H :    0.014562
  10 H :    0.021664
  11 H :    0.023874
  12 H :    0.024181
  13 H :    0.021595

  Mayer bond orders larger than 0.1
B(  0-C ,  1-O ) :   0.9563 B(  0-C ,  7-H ) :   0.9739 B(  0-C ,  8-H ) :   0.9685
B(  0-C ,  9-H ) :   0.9683 B(  1-O ,  2-N ) :   0.9246 B(  2-N ,  3-C ) :   1.2023
B(  2-N ,  6-C ) :   1.2022 B(  3-C ,  4-C ) :   1.4413 B(  3-C , 10-H ) :   0.9842
B(  4-C ,  5-C ) :   1.3252 B(  4-C , 11-H ) :   1.0006 B(  5-C ,  6-C ) :   1.4409
B(  5-C , 12-H ) :   0.9974 B(  6-C , 13-H ) :   0.9854

FINAL SINGLE POINT ENERGY      -324.004945554214

DIPOLE MOMENT
-------------
                                X             Y             Z
Electronic contribution:     -2.09781       0.85831      -1.40909
Nuclear contribution   :      2.42551      -1.26346       2.02398
                        -----------------------------------------
Total Dipole Moment    :      0.32770      -0.40515       0.61489
                        -----------------------------------------
Magnitude (a.u.)       :      0.80599
Magnitude (Debye)      :      2.04867

                             ****ORCA TERMINATED NORMALLY****
TOTAL RUN TIME: 0 days 0 hours 0 minutes 6 seconds 13 msec
