                         Program Version 3.0.3 - RELEASE   -
|  1> ! RI PBE def2-SVP def2-SVP/J NBO PAL2
|  2> % maxcore 2000
|  3> % output
|  4>     # printlevel mini
|  5>     print[ P_Basis ] 0
|  6>     print[ P_SCFInfo ] 1
|  7>     print[ P_SCFIterInfo ] 1
|  8>     print[ P_OrbEn ] 0
|  9>     print[ P_Cartesian ] 0
| 10> end
| 11> *xyz 0 1
| 12>  C        1.8575550000    -0.9713230000     0.5605470000
| 13>  O        2.7181720000     0.0621170000     0.0871040000
| 14>  N        2.9377070000     0.9890180000     1.0491840000
| 15>  C        2.5433070000     2.2716870000     0.9734970000
| 16>  C        3.0417900000     2.8708660000     2.1108460000
| 17>  C        3.7133400000     1.8414710000     2.7852840000
| 18>  N        3.6473500000     0.6929360000     2.1184440000
| 19>  H        1.7539480000    -1.6580860000    -0.2778890000
| 20>  H        0.8809460000    -0.5623250000     0.8347690000
| 21>  H        2.3080750000    -1.4821720000     1.4126370000
| 22>  H        1.9693730000     2.6349700000     0.1375960000
| 23>  H        2.9338990000     3.9023030000     2.4028060000
| 24>  H        4.2439470000     1.8815380000     3.7242740000
| 25> *
| 26>
| 27>                          ****END OF INPUT****
 Total Charge           Charge          ....    0
 Multiplicity           Mult            ....    1
 Number of Electrons    NEL             ....   52
 Basis Dimension        Dim             ....  128

MULLIKEN ATOMIC CHARGES
-----------------------
   0 C :    0.135494
   1 O :   -0.246691
   2 N :    0.006480
   3 C :    0.112319
   4 C :   -0.074923
   5 C :    0.032375
   6 N :   -0.086544
   7 H :    0.050844
   8 H :    0.027040
   9 H :    0.048449
  10 H :    0.003772
  11 H :   -0.006226
  12 H :   -0.002389
Sum of atomic charges:   -0.0000000

LOEWDIN ATOMIC CHARGES
----------------------
   0 C :    0.054972
   1 O :   -0.082762
   2 N :    0.168641
   3 C :   -0.032488
   4 C :   -0.101409
   5 C :   -0.050395
   6 N :   -0.100009
   7 H :    0.032149
   8 H :    0.014247
   9 H :    0.019598
  10 H :    0.028284
  11 H :    0.029156
  12 H :    0.020015

  Mayer bond orders larger than 0.1
B(  0-C ,  1-O ) :   0.9461 B(  0-C ,  7-H ) :   0.9748 B(  0-C ,  8-H ) :   0.9664
B(  0-C ,  9-H ) :   0.9677 B(  1-O ,  2-N ) :   0.9467 B(  2-N ,  3-C ) :   1.2251
B(  2-N ,  6-N ) :   1.1968 B(  3-C ,  4-C ) :   1.4035 B(  3-C ,  6-N ) :   0.1304
B(  3-C , 10-H ) :   0.9828 B(  4-C ,  5-C ) :   1.3378 B(  4-C , 11-H ) :   0.9872
B(  5-C ,  6-N ) :   1.5107 B(  5-C , 12-H ) :   0.9858

FINAL SINGLE POINT ENERGY      -340.024599732705

DIPOLE MOMENT
-------------
                                X             Y             Z
Electronic contribution:      2.31244       1.44520      -0.35177
Nuclear contribution   :     -3.07000      -1.41718       0.17587
                        -----------------------------------------
Total Dipole Moment    :     -0.75756       0.02801      -0.17590
                        -----------------------------------------
Magnitude (a.u.)       :      0.77822
Magnitude (Debye)      :      1.97808

                             ****ORCA TERMINATED NORMALLY****
TOTAL RUN TIME: 0 days 0 hours 0 minutes 5 seconds 958 msec
