                         Program Version 3.0.3 - RELEASE   -
|  1> ! RI PBE def2-SVP def2-SVP/J NBO PAL2
|  2> % maxcore 2000
|  3> % output
|  4>     # printlevel mini
|  5>     print[ P_Basis ] 0
|  6>     print[ P_SCFInfo ] 1
|  7>     print[ P_SCFIterInfo ] 1
|  8>     print[ P_OrbEn ] 0
|  9>     print[ P_Cartesian ] 0
| 10> end
| 11> *xyz 0 1
| 12>  C        1.7771420000     0.0584770000     1.2448700000
| 13>  O        1.9456640000    -0.3313590000    -0.1150790000
| 14>  N        2.6335860000    -1.5015400000    -0.2068860000
| 15>  C        3.9927640000    -1.6227950000    -0.2733520000
| 16>  C        4.2003640000    -2.9667130000    -0.4137130000
| 17>  N        3.0129820000    -3.6430520000    -0.4374300000
| 18>  C        2.0818780000    -2.7316770000    -0.3122870000
| 19>  H        1.2158700000     0.9910440000     1.2079750000
| 20>  H        2.7444080000     0.2257520000     1.7257740000
| 21>  H        1.2122370000    -0.6957920000     1.7986140000
| 22>  H        4.6453500000    -0.7674180000    -0.2309770000
| 23>  H        5.1441560000    -3.4816950000    -0.5060960000
| 24>  H        1.0134990000    -2.8847220000    -0.3017350000
| 25> *
| 26>
| 27>                          ****END OF INPUT****
 Total Charge           Charge          ....    0
 Multiplicity           Mult            ....    1
 Number of Electrons    NEL             ....   52
 Basis Dimension        Dim             ....  128

MULLIKEN ATOMIC CHARGES
-----------------------
   0 C :    0.135110
   1 O :   -0.258936
   2 N :   -0.022007
   3 C :    0.053528
   4 C :    0.005122
   5 N :   -0.153681
   6 C :    0.100021
   7 H :    0.052719
   8 H :    0.036048
   9 H :    0.038827
  10 H :    0.005056
  11 H :   -0.005228
  12 H :    0.013422
Sum of atomic charges:    0.0000000

LOEWDIN ATOMIC CHARGES
----------------------
   0 C :    0.057158
   1 O :   -0.084906
   2 N :    0.136756
   3 C :   -0.059113
   4 C :   -0.049108
   5 N :   -0.108297
   6 C :   -0.021686
   7 H :    0.033554
   8 H :    0.016231
   9 H :    0.016927
  10 H :    0.025744
  11 H :    0.018273
  12 H :    0.018468

  Mayer bond orders larger than 0.1
B(  0-C ,  1-O ) :   0.9526 B(  0-C ,  7-H ) :   0.9733 B(  0-C ,  8-H ) :   0.9680
B(  0-C ,  9-H ) :   0.9692 B(  1-O ,  2-N ) :   0.9191 B(  2-N ,  3-C ) :   1.1797
B(  2-N ,  6-C ) :   1.2094 B(  3-C ,  4-C ) :   1.4684 B(  3-C , 10-H ) :   0.9808
B(  4-C ,  5-N ) :   1.4088 B(  4-C , 11-H ) :   0.9874 B(  5-N ,  6-C ) :   1.6149
B(  6-C , 12-H ) :   0.9719

FINAL SINGLE POINT ENERGY      -340.033429475036

DIPOLE MOMENT
-------------
                                X             Y             Z
Electronic contribution:      0.39202      -2.42029      -2.97503
Nuclear contribution   :     -0.57768       3.63434       3.70171
                        -----------------------------------------
Total Dipole Moment    :     -0.18565       1.21405       0.72668
                        -----------------------------------------
Magnitude (a.u.)       :      1.42704
Magnitude (Debye)      :      3.62724

                             ****ORCA TERMINATED NORMALLY****
TOTAL RUN TIME: 0 days 0 hours 0 minutes 5 seconds 956 msec
