                         Program Version 3.0.3 - RELEASE   -
|  1> ! RI PBE def2-SVP def2-SVP/J NBO PAL2
|  2> % maxcore 2000
|  3> % output
|  4>     # printlevel mini
|  5>     print[ P_Basis ] 0
|  6>     print[ P_SCFInfo ] 1
|  7>     print[ P_SCFIterInfo ] 1
|  8>     print[ P_OrbEn ] 0
|  9>     print[ P_Cartesian ] 0
| 10> end
| 11> *xyz 0 1
| 12>  C        2.5246150000     1.1860480000     1.7915720000
| 13>  O        2.3576960000     1.2947940000     0.3933080000
| 14>  N        3.0836580000     2.3886920000    -0.0899600000
| 15>  C        4.2369990000     2.0182560000    -0.9100680000
| 16>  C        4.2934000000     3.2208520000    -1.8601700000
| 17>  N        2.9244960000     3.7450370000    -1.9005830000
| 18>  C        2.3276740000     3.2250380000    -0.9121970000
| 19>  H        1.9386940000     0.3165700000     2.0920030000
| 20>  H        2.1537990000     2.0770440000     2.3063940000
| 21>  H        3.5744930000     1.0260000000     2.0570990000
| 22>  H        4.0140050000     1.0857600000    -1.4424740000
| 23>  H        5.1363370000     1.8870580000    -0.3084170000
| 24>  H        4.6417850000     2.9690270000    -2.8627240000
| 25>  H        4.9547320000     3.9998940000    -1.4650650000
| 26>  H        1.2954270000     3.4176100000    -0.6394390000
| 27> *
| 28>
| 29>                          ****END OF INPUT****
 Total Charge           Charge          ....    0
 Multiplicity           Mult            ....    1
 Number of Electrons    NEL             ....   54
 Basis Dimension        Dim             ....  138

MULLIKEN ATOMIC CHARGES
-----------------------
   0 C :    0.160629
   1 O :   -0.283718
   2 N :   -0.174356
   3 C :    0.133764
   4 C :    0.063837
   5 N :   -0.214536
   6 C :    0.134264
   7 H :    0.035280
   8 H :    0.020722
   9 H :    0.014002
  10 H :    0.013074
  11 H :    0.021225
  12 H :    0.027902
  13 H :    0.034198
  14 H :    0.013713
Sum of atomic charges:   -0.0000000

LOEWDIN ATOMIC CHARGES
----------------------
   0 C :    0.045317
   1 O :   -0.107716
   2 N :    0.006789
   3 C :    0.007086
   4 C :    0.006085
   5 N :   -0.126802
   6 C :    0.014544
   7 H :    0.025385
   8 H :    0.009782
   9 H :    0.007848
  10 H :    0.016532
  11 H :    0.021254
  12 H :    0.026562
  13 H :    0.029115
  14 H :    0.018218

  Mayer bond orders larger than 0.1
B(  0-C ,  1-O ) :   0.9808 B(  0-C ,  7-H ) :   0.9713 B(  0-C ,  8-H ) :   0.9682
B(  0-C ,  9-H ) :   0.9667 B(  1-O ,  2-N ) :   0.9043 B(  2-N ,  3-C ) :   0.9759
B(  2-N ,  5-N ) :   0.1037 B(  2-N ,  6-C ) :   1.0792 B(  3-C ,  4-C ) :   1.0759
B(  3-C , 10-H ) :   0.9197 B(  3-C , 11-H ) :   0.9422 B(  4-C ,  5-N ) :   1.0596
B(  4-C , 12-H ) :   0.9438 B(  4-C , 13-H ) :   0.9258 B(  5-N ,  6-C ) :   1.8935
B(  6-C , 14-H ) :   0.9618

FINAL SINGLE POINT ENERGY      -341.218307071996

DIPOLE MOMENT
-------------
                                X             Y             Z
Electronic contribution:     -2.27022       1.66382      -2.32971
Nuclear contribution   :      2.70441      -2.21731       3.10069
                        -----------------------------------------
Total Dipole Moment    :      0.43419      -0.55349       0.77098
                        -----------------------------------------
Magnitude (a.u.)       :      1.04369
Magnitude (Debye)      :      2.65285

                             ****ORCA TERMINATED NORMALLY****
TOTAL RUN TIME: 0 days 0 hours 0 minutes 6 seconds 755 msec
