                         Program Version 3.0.3 - RELEASE   -
|  1> ! RI PBE def2-SVP def2-SVP/J NBO PAL2
|  2> % maxcore 2000
|  3> % output
|  4>     # printlevel mini
|  5>     print[ P_Basis ] 0
|  6>     print[ P_SCFInfo ] 1
|  7>     print[ P_SCFIterInfo ] 1
|  8>     print[ P_OrbEn ] 0
|  9>     print[ P_Cartesian ] 0
| 10> end
| 11> *xyz 0 1
| 12>  C        4.2534100000    -0.1449320000    -1.4107650000
| 13>  O        4.3033620000    -0.5667160000    -0.0666720000
| 14>  N        4.3303990000     0.5391710000     0.7576220000
| 15>  C        4.3327710000     0.2129470000     1.9828310000
| 16>  C        4.4254850000     1.2258000000     3.0452160000
| 17>  C        5.7282390000     1.9691990000     3.2467370000
| 18>  C        4.5292470000     2.6816050000     2.7173470000
| 19>  H        4.2442190000    -1.0565450000    -2.0084290000
| 20>  H        5.1306630000     0.4557690000    -1.6683830000
| 21>  H        3.3472590000     0.4348650000    -1.6099250000
| 22>  H        4.2939200000    -0.8409040000     2.2671210000
| 23>  H        3.8966010000     0.9597570000     3.9539000000
| 24>  H        6.5259570000     1.7420490000     2.5506830000
| 25>  H        6.0450780000     2.1633970000     4.2639750000
| 26>  H        4.5195070000     2.9418920000     1.6673930000
| 27>  H        4.0158840000     3.3751350000     3.3711610000
| 28> *
| 29>
| 30>                          ****END OF INPUT****
 Total Charge           Charge          ....    0
 Multiplicity           Mult            ....    1
 Number of Electrons    NEL             ....   54
 Basis Dimension        Dim             ....  143

MULLIKEN ATOMIC CHARGES
-----------------------
   0 C :    0.159493
   1 O :   -0.277980
   2 N :   -0.007513
   3 C :    0.016254
   4 C :   -0.100908
   5 C :   -0.034115
   6 C :   -0.007899
   7 H :    0.031101
   8 H :    0.018577
   9 H :    0.018906
  10 H :   -0.005832
  11 H :    0.027951
  12 H :    0.044424
  13 H :    0.034895
  14 H :    0.046169
  15 H :    0.036478
Sum of atomic charges:    0.0000000

LOEWDIN ATOMIC CHARGES
----------------------
   0 C :    0.040736
   1 O :   -0.090032
   2 N :   -0.010417
   3 C :   -0.023580
   4 C :   -0.057721
   5 C :   -0.026960
   6 C :   -0.033079
   7 H :    0.023511
   8 H :    0.010456
   9 H :    0.010647
  10 H :    0.007418
  11 H :    0.033479
  12 H :    0.029218
  13 H :    0.026676
  14 H :    0.030129
  15 H :    0.029519

  Mayer bond orders larger than 0.1
B(  0-C ,  1-O ) :   0.9781 B(  0-C ,  7-H ) :   0.9730 B(  0-C ,  8-H ) :   0.9669
B(  0-C ,  9-H ) :   0.9673 B(  1-O ,  2-N ) :   0.9484 B(  1-O ,  3-C ) :   0.1045
B(  2-N ,  3-C ) :   1.8899 B(  3-C ,  4-C ) :   1.0567 B(  3-C , 10-H ) :   0.9464
B(  4-C ,  5-C ) :   0.9548 B(  4-C ,  6-C ) :   0.9954 B(  4-C , 11-H ) :   0.9358
B(  5-C ,  6-C ) :   1.0586 B(  5-C , 12-H ) :   0.9502 B(  5-C , 13-H ) :   0.9489
B(  6-C , 14-H ) :   0.9345 B(  6-C , 15-H ) :   0.9437

FINAL SINGLE POINT ENERGY      -325.179211678205

DIPOLE MOMENT
-------------
                                X             Y             Z
Electronic contribution:     -0.94591      -2.66240      -0.13297
Nuclear contribution   :      0.97327       2.69839       0.25905
                        -----------------------------------------
Total Dipole Moment    :      0.02736       0.03600       0.12608
                        -----------------------------------------
Magnitude (a.u.)       :      0.13394
Magnitude (Debye)      :      0.34045

                             ****ORCA TERMINATED NORMALLY****
TOTAL RUN TIME: 0 days 0 hours 0 minutes 7 seconds 95 msec
