                         Program Version 3.0.3 - RELEASE   -
|  1> ! RI PBE def2-SVP def2-SVP/J NBO PAL2
|  2> % maxcore 2000
|  3> % output
|  4>     # printlevel mini
|  5>     print[ P_Basis ] 0
|  6>     print[ P_SCFInfo ] 1
|  7>     print[ P_SCFIterInfo ] 1
|  8>     print[ P_OrbEn ] 0
|  9>     print[ P_Cartesian ] 0
| 10> end
| 11> *xyz 0 1
| 12>  C        5.2006700000    -0.8144530000    -0.2669900000
| 13>  O        5.5570290000     0.1199510000     0.7288940000
| 14>  N        4.4199580000     0.6110590000     1.3249690000
| 15>  C        4.6784990000     1.4216230000     2.2645490000
| 16>  C        3.5772220000     2.0845500000     2.9828270000
| 17>  C        2.7185490000     3.0555060000     2.2530410000
| 18>  N        2.2015410000     1.7597890000     2.6539920000
| 19>  H        6.1400090000    -1.1605220000    -0.6977310000
| 20>  H        4.5887160000    -0.3469880000    -1.0436900000
| 21>  H        4.6581680000    -1.6608580000     0.1634700000
| 22>  H        5.7087840000     1.6424310000     2.5480820000
| 23>  H        3.7661330000     2.2632590000     4.0376180000
| 24>  H        2.9536090000     3.2220890000     1.2065420000
| 25>  H        2.3072360000     3.9070720000     2.7847590000
| 26>  H        2.2068780000     1.1223930000     1.8620700000
| 27> *
| 28>
| 29>                          ****END OF INPUT****
 Total Charge           Charge          ....    0
 Multiplicity           Mult            ....    1
 Number of Electrons    NEL             ....   54
 Basis Dimension        Dim             ....  138

MULLIKEN ATOMIC CHARGES
-----------------------
   0 C :    0.156531
   1 O :   -0.273258
   2 N :   -0.030339
   3 C :    0.028029
   4 C :   -0.055577
   5 C :    0.053378
   6 N :   -0.181101
   7 H :    0.032080
   8 H :    0.022215
   9 H :    0.024178
  10 H :    0.000549
  11 H :    0.035501
  12 H :    0.036859
  13 H :    0.038720
  14 H :    0.112236
Sum of atomic charges:    0.0000000

LOEWDIN ATOMIC CHARGES
----------------------
   0 C :    0.042793
   1 O :   -0.084716
   2 N :   -0.016206
   3 C :   -0.033344
   4 C :   -0.020835
   5 C :    0.019582
   6 N :   -0.085060
   7 H :    0.025012
   8 H :    0.011767
   9 H :    0.012758
  10 H :    0.011521
  11 H :    0.029692
  12 H :    0.017262
  13 H :    0.021644
  14 H :    0.048128

  Mayer bond orders larger than 0.1
B(  0-C ,  1-O ) :   0.9741 B(  0-C ,  7-H ) :   0.9728 B(  0-C ,  8-H ) :   0.9675
B(  0-C ,  9-H ) :   0.9680 B(  1-O ,  2-N ) :   0.9597 B(  1-O ,  3-C ) :   0.1048
B(  2-N ,  3-C ) :   1.8455 B(  3-C ,  4-C ) :   1.0247 B(  3-C , 10-H ) :   0.9491
B(  4-C ,  5-C ) :   1.0193 B(  4-C ,  6-N ) :   1.0261 B(  4-C , 11-H ) :   0.9266
B(  5-C ,  6-N ) :   1.0023 B(  5-C , 12-H ) :   0.9411 B(  5-C , 13-H ) :   0.9417
B(  6-N , 14-H ) :   0.9366

FINAL SINGLE POINT ENERGY      -341.190741766837

DIPOLE MOMENT
-------------
                                X             Y             Z
Electronic contribution:      0.73223       0.13266       1.78350
Nuclear contribution   :     -0.27985      -0.06843      -2.20597
                        -----------------------------------------
Total Dipole Moment    :      0.45238       0.06423      -0.42247
                        -----------------------------------------
Magnitude (a.u.)       :      0.62229
Magnitude (Debye)      :      1.58174

                             ****ORCA TERMINATED NORMALLY****
TOTAL RUN TIME: 0 days 0 hours 0 minutes 6 seconds 612 msec
