                         Program Version 3.0.3 - RELEASE   -
|  1> ! RI PBE def2-SVP def2-SVP/J NBO PAL2
|  2> % maxcore 2000
|  3> % output
|  4>     # printlevel mini
|  5>     print[ P_Basis ] 0
|  6>     print[ P_SCFInfo ] 1
|  7>     print[ P_SCFIterInfo ] 1
|  8>     print[ P_OrbEn ] 0
|  9>     print[ P_Cartesian ] 0
| 10> end
| 11> *xyz 0 1
| 12>  C        1.4484340000    -0.3200050000     0.8354480000
| 13>  O        2.6245050000     0.0957740000     0.1720460000
| 14>  N        3.0250650000    -0.8776460000    -0.7044020000
| 15>  C        4.0932360000    -0.5640940000    -1.3114480000
| 16>  C        4.6436950000    -1.4946290000    -2.3029890000
| 17>  C        5.4342450000    -1.0033250000    -3.4333610000
| 18>  O        6.0643110000    -1.6077760000    -2.3231750000
| 19>  H        1.1833300000     0.4966840000     1.5062750000
| 20>  H        1.6257030000    -1.2309060000     1.4134010000
| 21>  H        0.6374790000    -0.4924270000     0.1228270000
| 22>  H        4.6163870000     0.3729890000    -1.1136650000
| 23>  H        4.1019540000    -2.4307530000    -2.4084180000
| 24>  H        5.6036970000     0.0655850000    -3.5421560000
| 25>  H        5.4485690000    -1.5798600000    -4.3550020000
| 26> *
| 27>
| 28>                          ****END OF INPUT****
 Total Charge           Charge          ....    0
 Multiplicity           Mult            ....    1
 Number of Electrons    NEL             ....   54
 Basis Dimension        Dim             ....  133

MULLIKEN ATOMIC CHARGES
-----------------------
   0 C :    0.155377
   1 O :   -0.271855
   2 N :   -0.004014
   3 C :    0.051274
   4 C :    0.035783
   5 C :    0.146477
   6 O :   -0.284591
   7 H :    0.036010
   8 H :    0.026537
   9 H :    0.023381
  10 H :   -0.004879
  11 H :    0.022328
  12 H :    0.030854
  13 H :    0.037317
Sum of atomic charges:    0.0000000

LOEWDIN ATOMIC CHARGES
----------------------
   0 C :    0.043243
   1 O :   -0.080805
   2 N :    0.001532
   3 C :   -0.037768
   4 C :    0.033367
   5 C :    0.061860
   6 O :   -0.145580
   7 H :    0.025442
   8 H :    0.014340
   9 H :    0.013519
  10 H :    0.011558
  11 H :    0.024169
  12 H :    0.015749
  13 H :    0.019376

  Mayer bond orders larger than 0.1
B(  0-C ,  1-O ) :   0.9687 B(  0-C ,  7-H ) :   0.9739 B(  0-C ,  8-H ) :   0.9686
B(  0-C ,  9-H ) :   0.9676 B(  1-O ,  2-N ) :   0.9648 B(  1-O ,  3-C ) :   0.1135
B(  2-N ,  3-C ) :   1.8341 B(  3-C ,  4-C ) :   1.0585 B(  3-C , 10-H ) :   0.9279
B(  4-C ,  5-C ) :   1.0453 B(  4-C ,  6-O ) :   0.9419 B(  4-C , 11-H ) :   0.9393
B(  5-C ,  6-O ) :   0.9980 B(  5-C , 12-H ) :   0.9325 B(  5-C , 13-H ) :   0.9360

FINAL SINGLE POINT ENERGY      -361.029751411137

DIPOLE MOMENT
-------------
                                X             Y             Z
Electronic contribution:      3.12840      -0.54595      -0.65363
Nuclear contribution   :     -3.69708       0.82178       0.42114
                        -----------------------------------------
Total Dipole Moment    :     -0.56868       0.27583      -0.23250
                        -----------------------------------------
Magnitude (a.u.)       :      0.67345
Magnitude (Debye)      :      1.71177

                             ****ORCA TERMINATED NORMALLY****
TOTAL RUN TIME: 0 days 0 hours 0 minutes 5 seconds 895 msec
