                         Program Version 3.0.3 - RELEASE   -
|  1> ! RI PBE def2-SVP def2-SVP/J NBO PAL2
|  2> % maxcore 2000
|  3> % output
|  4>     # printlevel mini
|  5>     print[ P_Basis ] 0
|  6>     print[ P_SCFInfo ] 1
|  7>     print[ P_SCFIterInfo ] 1
|  8>     print[ P_OrbEn ] 0
|  9>     print[ P_Cartesian ] 0
| 10> end
| 11> *xyz 0 1
| 12>  C        2.3800610000    -0.5826340000     0.2258630000
| 13>  O        3.7418800000    -0.2098950000     0.1810050000
| 14>  N        3.9950220000     0.4362580000    -1.0001760000
| 15>  C        5.2223290000     0.8011830000    -1.0997290000
| 16>  C        6.2342020000     0.5380900000    -0.0353180000
| 17>  C        5.5344460000     1.4926380000    -2.3425840000
| 18>  C        6.7216730000     1.9754860000    -2.7032020000
| 19>  H        2.2402500000    -1.0882370000     1.1811230000
| 20>  H        2.1351440000    -1.2629040000    -0.5941650000
| 21>  H        1.7333910000     0.2972490000     0.1727920000
| 22>  H        5.9172010000     0.9960230000     0.9044340000
| 23>  H        7.2158190000     0.9222980000    -0.3025460000
| 24>  H        6.3115560000    -0.5355150000     0.1510110000
| 25>  H        4.6829210000     1.6007200000    -3.0080040000
| 26>  H        7.6032960000     1.8950700000    -2.0782900000
| 27>  H        6.8470990000     2.4759700000    -3.6553230000
| 28> *
| 29>
| 30>                          ****END OF INPUT****
 Total Charge           Charge          ....    0
 Multiplicity           Mult            ....    1
 Number of Electrons    NEL             ....   54
 Basis Dimension        Dim             ....  143

MULLIKEN ATOMIC CHARGES
-----------------------
   0 C :    0.162218
   1 O :   -0.275295
   2 N :   -0.011212
   3 C :   -0.204959
   4 C :    0.125163
   5 C :    0.046603
   6 C :   -0.052168
   7 H :    0.030759
   8 H :    0.024798
   9 H :    0.025760
  10 H :    0.037320
  11 H :    0.006477
  12 H :    0.039203
  13 H :   -0.004789
  14 H :    0.020543
  15 H :    0.029581
Sum of atomic charges:   -0.0000000

LOEWDIN ATOMIC CHARGES
----------------------
   0 C :    0.044194
   1 O :   -0.075819
   2 N :   -0.012639
   3 C :   -0.052484
   4 C :   -0.068064
   5 C :   -0.032066
   6 C :   -0.057612
   7 H :    0.023233
   8 H :    0.014019
   9 H :    0.014499
  10 H :    0.045138
  11 H :    0.030336
  12 H :    0.045143
  13 H :    0.033875
  14 H :    0.019925
  15 H :    0.028322

  Mayer bond orders larger than 0.1
B(  0-C ,  1-O ) :   0.9660 B(  0-C ,  7-H ) :   0.9739 B(  0-C ,  8-H ) :   0.9678
B(  0-C ,  9-H ) :   0.9678 B(  1-O ,  2-N ) :   0.9883 B(  2-N ,  3-C ) :   1.7797
B(  2-N ,  6-C ) :   0.1119 B(  3-C ,  4-C ) :   1.0915 B(  3-C ,  5-C ) :   1.1230
B(  4-C , 10-H ) :   0.9279 B(  4-C , 11-H ) :   0.9334 B(  4-C , 12-H ) :   0.9296
B(  5-C ,  6-C ) :   1.8745 B(  5-C , 13-H ) :   0.9464 B(  6-C , 14-H ) :   0.9448
B(  6-C , 15-H ) :   0.9392

FINAL SINGLE POINT ENERGY      -325.195228298965

DIPOLE MOMENT
-------------
                                X             Y             Z
Electronic contribution:     -1.49637      -0.08032      -0.61211
Nuclear contribution   :      1.50873      -0.05138       0.89288
                        -----------------------------------------
Total Dipole Moment    :      0.01236      -0.13169       0.28077
                        -----------------------------------------
Magnitude (a.u.)       :      0.31037
Magnitude (Debye)      :      0.78889

                             ****ORCA TERMINATED NORMALLY****
TOTAL RUN TIME: 0 days 0 hours 0 minutes 7 seconds 112 msec
