                         Program Version 3.0.3 - RELEASE   -
|  1> ! RI PBE def2-SVP def2-SVP/J NBO PAL2
|  2> % maxcore 2000
|  3> % output
|  4>     # printlevel mini
|  5>     print[ P_Basis ] 0
|  6>     print[ P_SCFInfo ] 1
|  7>     print[ P_SCFIterInfo ] 1
|  8>     print[ P_OrbEn ] 0
|  9>     print[ P_Cartesian ] 0
| 10> end
| 11> *xyz 0 1
| 12>  C        1.4018060000    -0.4094630000     0.7122490000
| 13>  O        2.7879110000    -0.2593650000     0.4745710000
| 14>  N        3.1962010000    -1.2003420000    -0.4286530000
| 15>  C        4.4513330000    -1.0994220000    -0.6737840000
| 16>  C        5.3516210000    -0.0796320000    -0.0485970000
| 17>  C        4.9892690000    -2.0324780000    -1.6043000000
| 18>  C        5.5115070000    -2.7877370000    -2.3803540000
| 19>  H        1.1396310000     0.3623660000     1.4353100000
| 20>  H        1.1837860000    -1.3972620000     1.1255380000
| 21>  H        0.8323720000    -0.2660800000    -0.2093230000
| 22>  H        4.9912200000     0.9266360000    -0.2749410000
| 23>  H        6.3711390000    -0.1904570000    -0.4111510000
| 24>  H        5.3376480000    -0.1846150000     1.0388240000
| 25>  H        5.9540670000    -3.4663310000    -3.0705970000
| 26> *
| 27>
| 28>                          ****END OF INPUT****
 Total Charge           Charge          ....    0
 Multiplicity           Mult            ....    1
 Number of Electrons    NEL             ....   52
 Basis Dimension        Dim             ....  133

MULLIKEN ATOMIC CHARGES
-----------------------
   0 C :    0.160829
   1 O :   -0.273349
   2 N :    0.004438
   3 C :   -0.225114
   4 C :    0.106127
   5 C :    0.452114
   6 C :   -0.444502
   7 H :    0.035115
   8 H :    0.027303
   9 H :    0.029056
  10 H :    0.044965
  11 H :    0.025239
  12 H :    0.049205
  13 H :    0.008574
Sum of atomic charges:   -0.0000000

LOEWDIN ATOMIC CHARGES
----------------------
   0 C :    0.046717
   1 O :   -0.071753
   2 N :    0.004640
   3 C :   -0.070549
   4 C :   -0.062381
   5 C :   -0.016534
   6 C :   -0.055919
   7 H :    0.024623
   8 H :    0.015976
   9 H :    0.016428
  10 H :    0.046164
  11 H :    0.038613
  12 H :    0.046697
  13 H :    0.037278

  Mayer bond orders larger than 0.1
B(  0-C ,  1-O ) :   0.9614 B(  0-C ,  7-H ) :   0.9739 B(  0-C ,  8-H ) :   0.9686
B(  0-C ,  9-H ) :   0.9685 B(  1-O ,  2-N ) :   0.9954 B(  2-N ,  3-C ) :   1.7961
B(  3-C ,  4-C ) :   1.0714 B(  3-C ,  5-C ) :   1.0178 B(  4-C , 10-H ) :   0.9345
B(  4-C , 11-H ) :   0.9452 B(  4-C , 12-H ) :   0.9357 B(  5-C ,  6-C ) :   2.2687
B(  6-C , 13-H ) :   1.0896

FINAL SINGLE POINT ENERGY      -323.944915754451

DIPOLE MOMENT
-------------
                                X             Y             Z
Electronic contribution:      1.21297      -2.65652      -2.56816
Nuclear contribution   :     -1.23778       2.96591       2.83288
                        -----------------------------------------
Total Dipole Moment    :     -0.02482       0.30940       0.26473
                        -----------------------------------------
Magnitude (a.u.)       :      0.40795
Magnitude (Debye)      :      1.03692

                             ****ORCA TERMINATED NORMALLY****
TOTAL RUN TIME: 0 days 0 hours 0 minutes 6 seconds 727 msec
