                         Program Version 3.0.3 - RELEASE   -
|  1> ! RI PBE def2-SVP def2-SVP/J NBO PAL2
|  2> % maxcore 2000
|  3> % output
|  4>     # printlevel mini
|  5>     print[ P_Basis ] 0
|  6>     print[ P_SCFInfo ] 1
|  7>     print[ P_SCFIterInfo ] 1
|  8>     print[ P_OrbEn ] 0
|  9>     print[ P_Cartesian ] 0
| 10> end
| 11> *xyz 0 1
| 12>  C        1.4391770000    -0.1610030000     0.2708580000
| 13>  O        2.8321220000    -0.2651260000     0.0676380000
| 14>  N        3.2729980000     0.8231200000    -0.6432280000
| 15>  C        4.5302360000     0.7707020000    -0.8507800000
| 16>  C        5.1844910000     1.8264960000    -1.5837090000
| 17>  C        6.4954020000     1.8337640000    -1.8360400000
| 18>  C        7.2139170000     2.8970890000    -2.5853680000
| 19>  H        1.1543710000    -1.0479810000     0.8365000000
| 20>  H        0.9044490000    -0.1422550000    -0.6828950000
| 21>  H        1.1928370000     0.7380350000     0.8426730000
| 22>  H        5.1175790000    -0.0706110000    -0.4768180000
| 23>  H        4.5488040000     2.6368140000    -1.9307920000
| 24>  H        7.0971050000     1.0027900000    -1.4705940000
| 25>  H        6.5353530000     3.6867260000    -2.9123450000
| 26>  H        7.7138610000     2.4858050000    -3.4686340000
| 27>  H        7.9977060000     3.3505050000    -1.9694580000
| 28> *
| 29>
| 30>                          ****END OF INPUT****
 Total Charge           Charge          ....    0
 Multiplicity           Mult            ....    1
 Number of Electrons    NEL             ....   54
 Basis Dimension        Dim             ....  143

MULLIKEN ATOMIC CHARGES
-----------------------
   0 C :    0.158228
   1 O :   -0.273585
   2 N :   -0.010794
   3 C :   -0.005910
   4 C :    0.039511
   5 C :   -0.114882
   6 C :    0.044620
   7 H :    0.032401
   8 H :    0.022811
   9 H :    0.022848
  10 H :   -0.009296
  11 H :   -0.006518
  12 H :    0.001102
  13 H :    0.023741
  14 H :    0.037071
  15 H :    0.038653
Sum of atomic charges:   -0.0000000

LOEWDIN ATOMIC CHARGES
----------------------
   0 C :    0.042592
   1 O :   -0.081909
   2 N :   -0.008510
   3 C :   -0.034431
   4 C :   -0.052263
   5 C :   -0.027166
   6 C :   -0.063933
   7 H :    0.023765
   8 H :    0.012979
   9 H :    0.012758
  10 H :    0.008353
  11 H :    0.030467
  12 H :    0.024054
  13 H :    0.033093
  14 H :    0.039913
  15 H :    0.040237

  Mayer bond orders larger than 0.1
B(  0-C ,  1-O ) :   0.9712 B(  0-C ,  7-H ) :   0.9742 B(  0-C ,  8-H ) :   0.9670
B(  0-C ,  9-H ) :   0.9674 B(  1-O ,  2-N ) :   0.9615 B(  2-N ,  3-C ) :   1.7788
B(  2-N ,  5-C ) :   0.1114 B(  3-C ,  4-C ) :   1.1230 B(  3-C , 10-H ) :   0.9478
B(  4-C ,  5-C ) :   1.7755 B(  4-C , 11-H ) :   0.9570 B(  5-C ,  6-C ) :   1.0912
B(  5-C , 12-H ) :   0.9573 B(  6-C , 13-H ) :   0.9599 B(  6-C , 14-H ) :   0.9432
B(  6-C , 15-H ) :   0.9429

FINAL SINGLE POINT ENERGY      -325.195551459653

DIPOLE MOMENT
-------------
                                X             Y             Z
Electronic contribution:     -2.59280      -2.76886       2.08609
Nuclear contribution   :      2.79227       2.79925      -2.14407
                        -----------------------------------------
Total Dipole Moment    :      0.19947       0.03039      -0.05798
                        -----------------------------------------
Magnitude (a.u.)       :      0.20994
Magnitude (Debye)      :      0.53362

                             ****ORCA TERMINATED NORMALLY****
TOTAL RUN TIME: 0 days 0 hours 0 minutes 6 seconds 836 msec
