                         Program Version 3.0.3 - RELEASE   -
|  1> ! RI PBE def2-SVP def2-SVP/J NBO PAL2
|  2> % maxcore 2000
|  3> % output
|  4>     # printlevel mini
|  5>     print[ P_Basis ] 0
|  6>     print[ P_SCFInfo ] 1
|  7>     print[ P_SCFIterInfo ] 1
|  8>     print[ P_OrbEn ] 0
|  9>     print[ P_Cartesian ] 0
| 10> end
| 11> *xyz 0 1
| 12>  C        2.0826810000     0.9165600000     0.7538910000
| 13>  O        3.0762640000    -0.0484570000     0.4864150000
| 14>  N        3.7136000000    -0.3846220000     1.6635690000
| 15>  C        4.6189680000    -1.2508110000     1.4819670000
| 16>  C        5.4320560000    -1.7537610000     2.6285070000
| 17>  C        5.2275830000    -3.2564860000     2.8036900000
| 18>  C        6.9069060000    -1.4200170000     2.4184210000
| 19>  H        1.6185140000     1.1393290000    -0.2069300000
| 20>  H        2.5204890000     1.8275530000     1.1721600000
| 21>  H        1.3303250000     0.5263870000     1.4454480000
| 22>  H        4.8170800000    -1.6422300000     0.4794830000
| 23>  H        5.0731900000    -1.2377120000     3.5241300000
| 24>  H        5.5419930000    -3.8015510000     1.9083450000
| 25>  H        4.1789760000    -3.4948910000     2.9927810000
| 26>  H        5.8198810000    -3.6285730000     3.6433380000
| 27>  H        7.2891350000    -1.8908990000     1.5075070000
| 28>  H        7.5056580000    -1.7850690000     3.2565800000
| 29>  H        7.0614710000    -0.3426500000     2.3314890000
| 30> *
| 31>
| 32>                          ****END OF INPUT****
 Total Charge           Charge          ....    0
 Multiplicity           Mult            ....    1
 Number of Electrons    NEL             ....   56
 Basis Dimension        Dim             ....  153

MULLIKEN ATOMIC CHARGES
-----------------------
   0 C :    0.161456
   1 O :   -0.281337
   2 N :   -0.005510
   3 C :   -0.019933
   4 C :   -0.078117
   5 C :    0.008711
   6 C :    0.007117
   7 H :    0.028565
   8 H :    0.017344
   9 H :    0.020429
  10 H :   -0.003814
  11 H :    0.008530
  12 H :    0.017319
  13 H :    0.029582
  14 H :    0.020524
  15 H :    0.015564
  16 H :    0.022474
  17 H :    0.031095
Sum of atomic charges:   -0.0000000

LOEWDIN ATOMIC CHARGES
----------------------
   0 C :    0.041435
   1 O :   -0.094382
   2 N :   -0.007006
   3 C :   -0.018511
   4 C :   -0.054406
   5 C :   -0.053758
   6 C :   -0.054271
   7 H :    0.022788
   8 H :    0.010474
   9 H :    0.010991
  10 H :    0.003608
  11 H :    0.031192
  12 H :    0.024364
  13 H :    0.029026
  14 H :    0.027326
  15 H :    0.024287
  16 H :    0.027643
  17 H :    0.029201

  Mayer bond orders larger than 0.1
B(  0-C ,  1-O ) :   0.9780 B(  0-C ,  7-H ) :   0.9733 B(  0-C ,  8-H ) :   0.9670
B(  0-C ,  9-H ) :   0.9675 B(  1-O ,  2-N ) :   0.9468 B(  1-O ,  3-C ) :   0.1068
B(  2-N ,  3-C ) :   1.9029 B(  3-C ,  4-C ) :   1.0031 B(  3-C , 10-H ) :   0.9379
B(  4-C ,  5-C ) :   1.0649 B(  4-C ,  6-C ) :   1.0627 B(  4-C , 11-H ) :   0.9045
B(  5-C , 12-H ) :   0.9635 B(  5-C , 13-H ) :   0.9632 B(  5-C , 14-H ) :   0.9590
B(  6-C , 15-H ) :   0.9630 B(  6-C , 16-H ) :   0.9593 B(  6-C , 17-H ) :   0.9632

FINAL SINGLE POINT ENERGY      -326.405337678945

DIPOLE MOMENT
-------------
                                X             Y             Z
Electronic contribution:     -3.88086       2.95022      -2.84071
Nuclear contribution   :      3.97793      -3.03466       2.87222
                        -----------------------------------------
Total Dipole Moment    :      0.09708      -0.08444       0.03152
                        -----------------------------------------
Magnitude (a.u.)       :      0.13247
Magnitude (Debye)      :      0.33670

                             ****ORCA TERMINATED NORMALLY****
TOTAL RUN TIME: 0 days 0 hours 0 minutes 7 seconds 690 msec
