                         Program Version 3.0.3 - RELEASE   -
|  1> ! RI PBE def2-SVP def2-SVP/J NBO PAL2
|  2> % maxcore 2000
|  3> % output
|  4>     # printlevel mini
|  5>     print[ P_Basis ] 0
|  6>     print[ P_SCFInfo ] 1
|  7>     print[ P_SCFIterInfo ] 1
|  8>     print[ P_OrbEn ] 0
|  9>     print[ P_Cartesian ] 0
| 10> end
| 11> *xyz 0 1
| 12>  C        3.5044590000     0.5285330000     1.3835850000
| 13>  O        4.1086180000     0.4629340000     0.1082580000
| 14>  N        4.0629090000    -0.8259560000    -0.3540960000
| 15>  C        4.5976270000    -0.9353840000    -1.5051310000
| 16>  C        4.6520110000    -2.2249340000    -2.1748600000
| 17>  C        4.0661120000    -3.4093860000    -1.4771510000
| 18>  C        5.2209580000    -2.2991720000    -3.3816320000
| 19>  H        3.5739790000     1.5718320000     1.6901110000
| 20>  H        4.0340780000    -0.1050960000     2.1003290000
| 21>  H        2.4550980000     0.2248710000     1.3353430000
| 22>  H        5.0218300000    -0.0619230000    -2.0035370000
| 23>  H        3.0072440000    -3.2457600000    -1.2621000000
| 24>  H        4.5543940000    -3.5696460000    -0.5127270000
| 25>  H        4.1714450000    -4.3092500000    -2.0835560000
| 26>  H        5.6380470000    -1.4216550000    -3.8634610000
| 27>  H        5.2851020000    -3.2376180000    -3.9196740000
| 28> *
| 29>
| 30>                          ****END OF INPUT****
 Total Charge           Charge          ....    0
 Multiplicity           Mult            ....    1
 Number of Electrons    NEL             ....   54
 Basis Dimension        Dim             ....  143

MULLIKEN ATOMIC CHARGES
-----------------------
   0 C :    0.158883
   1 O :   -0.268962
   2 N :   -0.001015
   3 C :    0.009133
   4 C :   -0.133330
   5 C :    0.089488
   6 C :   -0.029856
   7 H :    0.033414
   8 H :    0.022516
   9 H :    0.024554
  10 H :   -0.016858
  11 H :    0.035855
  12 H :    0.032497
  13 H :    0.011027
  14 H :    0.015586
  15 H :    0.017067
Sum of atomic charges:   -0.0000000

LOEWDIN ATOMIC CHARGES
----------------------
   0 C :    0.043781
   1 O :   -0.078028
   2 N :   -0.004380
   3 C :   -0.029537
   4 C :   -0.043063
   5 C :   -0.053905
   6 C :   -0.051844
   7 H :    0.024365
   8 H :    0.013252
   9 H :    0.013526
  10 H :    0.009032
  11 H :    0.041211
  12 H :    0.040511
  13 H :    0.029431
  14 H :    0.022331
  15 H :    0.023318

  Mayer bond orders larger than 0.1
B(  0-C ,  1-O ) :   0.9701 B(  0-C ,  7-H ) :   0.9740 B(  0-C ,  8-H ) :   0.9671
B(  0-C ,  9-H ) :   0.9678 B(  1-O ,  2-N ) :   0.9646 B(  1-O ,  3-C ) :   0.1004
B(  2-N ,  3-C ) :   1.8262 B(  2-N ,  6-C ) :   0.1100 B(  3-C ,  4-C ) :   1.0952
B(  3-C , 10-H ) :   0.9476 B(  4-C ,  5-C ) :   1.1046 B(  4-C ,  6-C ) :   1.8734
B(  5-C , 11-H ) :   0.9351 B(  5-C , 12-H ) :   0.9347 B(  5-C , 13-H ) :   0.9467
B(  6-C , 14-H ) :   0.9380 B(  6-C , 15-H ) :   0.9331

FINAL SINGLE POINT ENERGY      -325.194391384617

DIPOLE MOMENT
-------------
                                X             Y             Z
Electronic contribution:      0.76284       3.17654      -0.20205
Nuclear contribution   :     -0.83113      -3.15041       0.35341
                        -----------------------------------------
Total Dipole Moment    :     -0.06828       0.02613       0.15136
                        -----------------------------------------
Magnitude (a.u.)       :      0.16809
Magnitude (Debye)      :      0.42726

                             ****ORCA TERMINATED NORMALLY****
TOTAL RUN TIME: 0 days 0 hours 0 minutes 7 seconds 21 msec
