                         Program Version 3.0.3 - RELEASE   -
|  1> ! RI PBE def2-SVP def2-SVP/J NBO PAL2
|  2> % maxcore 2000
|  3> % output
|  4>     # printlevel mini
|  5>     print[ P_Basis ] 0
|  6>     print[ P_SCFInfo ] 1
|  7>     print[ P_SCFIterInfo ] 1
|  8>     print[ P_OrbEn ] 0
|  9>     print[ P_Cartesian ] 0
| 10> end
| 11> *xyz 0 1
| 12>  C        1.1883680000     0.3445110000     0.5990460000
| 13>  O        2.5534150000     0.1822450000     0.2701850000
| 14>  N        3.0686040000    -0.8754880000     0.9665990000
| 15>  C        4.3035720000    -1.0494900000     0.6911950000
| 16>  C        5.0395170000    -2.0916130000     1.3002540000
| 17>  C        5.7249290000    -2.9581740000     1.7807290000
| 18>  C        6.5274560000    -4.0075300000     2.3723710000
| 19>  H        0.8433420000     1.1969030000     0.0146240000
| 20>  H        1.0660900000     0.5509720000     1.6654230000
| 21>  H        0.6142890000    -0.5463670000     0.3316250000
| 22>  H        4.8072850000    -0.3927630000    -0.0202830000
| 23>  H        7.5721020000    -3.9229460000     2.0636420000
| 24>  H        6.1637380000    -4.9931740000     2.0701730000
| 25>  H        6.4909920000    -3.9568040000     3.4636860000
| 26> *
| 27>
| 28>                          ****END OF INPUT****
 Total Charge           Charge          ....    0
 Multiplicity           Mult            ....    1
 Number of Electrons    NEL             ....   52
 Basis Dimension        Dim             ....  133

MULLIKEN ATOMIC CHARGES
-----------------------
   0 C :    0.158246
   1 O :   -0.270667
   2 N :   -0.003628
   3 C :   -0.069837
   4 C :    0.030547
   5 C :   -0.172340
   6 C :    0.047220
   7 H :    0.033288
   8 H :    0.025603
   9 H :    0.028445
  10 H :    0.026761
  11 H :    0.053065
  12 H :    0.052499
  13 H :    0.060797
Sum of atomic charges:   -0.0000000

LOEWDIN ATOMIC CHARGES
----------------------
   0 C :    0.045193
   1 O :   -0.076028
   2 N :    0.010578
   3 C :   -0.049448
   4 C :   -0.070334
   5 C :   -0.030277
   6 C :   -0.067370
   7 H :    0.024751
   8 H :    0.014777
   9 H :    0.015273
  10 H :    0.019010
  11 H :    0.053526
  12 H :    0.054585
  13 H :    0.055764

  Mayer bond orders larger than 0.1
B(  0-C ,  1-O ) :   0.9653 B(  0-C ,  7-H ) :   0.9735 B(  0-C ,  8-H ) :   0.9682
B(  0-C ,  9-H ) :   0.9684 B(  1-O ,  2-N ) :   0.9753 B(  1-O ,  3-C ) :   0.1049
B(  2-N ,  3-C ) :   1.7903 B(  3-C ,  4-C ) :   0.9994 B(  3-C , 10-H ) :   0.9459
B(  4-C ,  5-C ) :   2.4751 B(  5-C ,  6-C ) :   1.1311 B(  6-C , 11-H ) :   0.9318
B(  6-C , 12-H ) :   0.9276 B(  6-C , 13-H ) :   0.9309

FINAL SINGLE POINT ENERGY      -323.951381815839

DIPOLE MOMENT
-------------
                                X             Y             Z
Electronic contribution:      0.36194       1.75496      -1.56549
Nuclear contribution   :     -0.22436      -1.90805       1.64406
                        -----------------------------------------
Total Dipole Moment    :      0.13758      -0.15309       0.07857
                        -----------------------------------------
Magnitude (a.u.)       :      0.22031
Magnitude (Debye)      :      0.55999

                             ****ORCA TERMINATED NORMALLY****
TOTAL RUN TIME: 0 days 0 hours 0 minutes 6 seconds 421 msec
