                         Program Version 3.0.3 - RELEASE   -
|  1> ! RI PBE def2-SVP def2-SVP/J NBO PAL2
|  2> % maxcore 2000
|  3> % output
|  4>     # printlevel mini
|  5>     print[ P_Basis ] 0
|  6>     print[ P_SCFInfo ] 1
|  7>     print[ P_SCFIterInfo ] 1
|  8>     print[ P_OrbEn ] 0
|  9>     print[ P_Cartesian ] 0
| 10> end
| 11> *xyz 0 1
| 12>  C        4.1769380000     1.5052810000    -0.0874740000
| 13>  O        4.9156490000     0.3828190000     0.3426170000
| 14>  N        4.0793230000    -0.4864070000     1.0068270000
| 15>  C        4.6941380000    -1.5128320000     1.4230610000
| 16>  C        3.9517860000    -2.5773340000     2.1613090000
| 17>  C        3.9826060000    -3.8867660000     1.4329060000
| 18>  C        4.5282480000    -4.9998630000     1.9009320000
| 19>  H        4.8890560000     2.1496580000    -0.6028660000
| 20>  H        3.7429730000     2.0403130000     0.7620210000
| 21>  H        3.3795380000     1.2117130000    -0.7761000000
| 22>  H        5.7626160000    -1.6373840000     1.2350660000
| 23>  H        2.9201220000    -2.2376180000     2.2928790000
| 24>  H        4.3933220000    -2.7058750000     3.1557690000
| 25>  H        3.5223070000    -3.8887700000     0.4470860000
| 26>  H        4.9987650000    -5.0329640000     2.8790470000
| 27>  H        4.5201240000    -5.9195720000     1.3277190000
| 28> *
| 29>
| 30>                          ****END OF INPUT****
 Total Charge           Charge          ....    0
 Multiplicity           Mult            ....    1
 Number of Electrons    NEL             ....   54
 Basis Dimension        Dim             ....  143

MULLIKEN ATOMIC CHARGES
-----------------------
   0 C :    0.153159
   1 O :   -0.279781
   2 N :   -0.004574
   3 C :   -0.064646
   4 C :    0.126015
   5 C :   -0.093787
   6 C :   -0.031825
   7 H :    0.033773
   8 H :    0.022400
   9 H :    0.022732
  10 H :    0.007940
  11 H :    0.028251
  12 H :    0.019807
  13 H :    0.012224
  14 H :    0.019218
  15 H :    0.029093
Sum of atomic charges:   -0.0000000

LOEWDIN ATOMIC CHARGES
----------------------
   0 C :    0.040571
   1 O :   -0.090350
   2 N :   -0.005545
   3 C :   -0.024807
   4 C :   -0.046286
   5 C :   -0.026431
   6 C :   -0.062230
   7 H :    0.024294
   8 H :    0.012229
   9 H :    0.011841
  10 H :    0.007003
  11 H :    0.043134
  12 H :    0.039657
  13 H :    0.028295
  14 H :    0.022110
  15 H :    0.026515

  Mayer bond orders larger than 0.1
B(  0-C ,  1-O ) :   0.9744 B(  0-C ,  7-H ) :   0.9737 B(  0-C ,  8-H ) :   0.9673
B(  0-C ,  9-H ) :   0.9674 B(  1-O ,  2-N ) :   0.9551 B(  1-O ,  3-C ) :   0.1087
B(  2-N ,  3-C ) :   1.8882 B(  3-C ,  4-C ) :   1.0262 B(  3-C , 10-H ) :   0.9416
B(  4-C ,  5-C ) :   1.0470 B(  4-C , 11-H ) :   0.9041 B(  4-C , 12-H ) :   0.9099
B(  5-C ,  6-C ) :   2.0060 B(  5-C , 13-H ) :   0.9555 B(  6-C , 14-H ) :   0.9462
B(  6-C , 15-H ) :   0.9465

FINAL SINGLE POINT ENERGY      -325.180031452402

DIPOLE MOMENT
-------------
                                X             Y             Z
Electronic contribution:      0.90125       1.85598      -0.46553
Nuclear contribution   :     -0.88535      -1.82564       0.46889
                        -----------------------------------------
Total Dipole Moment    :      0.01590       0.03034       0.00336
                        -----------------------------------------
Magnitude (a.u.)       :      0.03442
Magnitude (Debye)      :      0.08749

                             ****ORCA TERMINATED NORMALLY****
TOTAL RUN TIME: 0 days 0 hours 0 minutes 6 seconds 909 msec
