                         Program Version 3.0.3 - RELEASE   -
|  1> ! RI PBE def2-SVP def2-SVP/J NBO PAL2
|  2> % maxcore 2000
|  3> % output
|  4>     # printlevel mini
|  5>     print[ P_Basis ] 0
|  6>     print[ P_SCFInfo ] 1
|  7>     print[ P_SCFIterInfo ] 1
|  8>     print[ P_OrbEn ] 0
|  9>     print[ P_Cartesian ] 0
| 10> end
| 11> *xyz 0 1
| 12>  C        1.6947750000     0.2144400000     0.7671700000
| 13>  O        3.0076130000    -0.0189090000     0.3022830000
| 14>  N        3.2748600000     0.8206570000    -0.7519720000
| 15>  C        4.4343020000     0.6378200000    -1.2239930000
| 16>  C        4.8950010000     1.4877120000    -2.3666830000
| 17>  C        5.3586120000     0.6933750000    -3.4948910000
| 18>  C        5.7431130000     0.0243710000    -4.4135540000
| 19>  H        1.5489060000    -0.4746930000     1.5986720000
| 20>  H        0.9588820000     0.0102480000    -0.0153350000
| 21>  H        1.5789350000     1.2443340000     1.1158590000
| 22>  H        5.1023840000    -0.1219920000    -0.8168390000
| 23>  H        5.7148540000     2.1347820000    -2.0300840000
| 24>  H        4.0728960000     2.1409440000    -2.6703850000
| 25>  H        6.0802660000    -0.5650900000    -5.2330490000
| 26> *
| 27>
| 28>                          ****END OF INPUT****
 Total Charge           Charge          ....    0
 Multiplicity           Mult            ....    1
 Number of Electrons    NEL             ....   52
 Basis Dimension        Dim             ....  133

MULLIKEN ATOMIC CHARGES
-----------------------
   0 C :    0.160850
   1 O :   -0.278444
   2 N :    0.001426
   3 C :   -0.056752
   4 C :    0.146479
   5 C :    0.290212
   6 C :   -0.462342
   7 H :    0.033500
   8 H :    0.023743
   9 H :    0.020198
  10 H :    0.017193
  11 H :    0.057226
  12 H :    0.045517
  13 H :    0.001195
Sum of atomic charges:   -0.0000000

LOEWDIN ATOMIC CHARGES
----------------------
   0 C :    0.044042
   1 O :   -0.087138
   2 N :   -0.000854
   3 C :   -0.017798
   4 C :   -0.049681
   5 C :   -0.023569
   6 C :   -0.079803
   7 H :    0.024840
   8 H :    0.013026
   9 H :    0.012126
  10 H :    0.011193
  11 H :    0.060621
  12 H :    0.057347
  13 H :    0.035649

  Mayer bond orders larger than 0.1
B(  0-C ,  1-O ) :   0.9723 B(  0-C ,  7-H ) :   0.9737 B(  0-C ,  8-H ) :   0.9684
B(  0-C ,  9-H ) :   0.9675 B(  1-O ,  2-N ) :   0.9622 B(  1-O ,  3-C ) :   0.1116
B(  2-N ,  3-C ) :   1.9027 B(  3-C ,  4-C ) :   1.0211 B(  3-C , 10-H ) :   0.9450
B(  4-C ,  5-C ) :   1.0356 B(  4-C , 11-H ) :   0.8916 B(  4-C , 12-H ) :   0.8893
B(  5-C ,  6-C ) :   2.3940 B(  5-C , 13-H ) :  -0.1075 B(  6-C , 13-H ) :   1.0988

FINAL SINGLE POINT ENERGY      -323.934885920319

DIPOLE MOMENT
-------------
                                X             Y             Z
Electronic contribution:      2.49058      -0.47747      -1.91878
Nuclear contribution   :     -2.54439       0.55364       2.12731
                        -----------------------------------------
Total Dipole Moment    :     -0.05381       0.07617       0.20853
                        -----------------------------------------
Magnitude (a.u.)       :      0.22844
Magnitude (Debye)      :      0.58064

                             ****ORCA TERMINATED NORMALLY****
TOTAL RUN TIME: 0 days 0 hours 0 minutes 6 seconds 230 msec
