                         Program Version 3.0.3 - RELEASE   -
|  1> ! RI PBE def2-SVP def2-SVP/J NBO PAL2
|  2> % maxcore 2000
|  3> % output
|  4>     # printlevel mini
|  5>     print[ P_Basis ] 0
|  6>     print[ P_SCFInfo ] 1
|  7>     print[ P_SCFIterInfo ] 1
|  8>     print[ P_OrbEn ] 0
|  9>     print[ P_Cartesian ] 0
| 10> end
| 11> *xyz 0 1
| 12>  C        2.0087880000    -0.6809950000     1.6156640000
| 13>  O        2.9533310000    -0.3069170000     0.6376840000
| 14>  N        3.6108710000    -1.4312010000     0.1849340000
| 15>  C        4.4685180000    -1.1522520000    -0.7050240000
| 16>  C        5.2910320000    -2.2274140000    -1.3190740000
| 17>  C        6.7790130000    -2.0537560000    -1.0392830000
| 18>  N        7.5436240000    -3.0551970000    -1.7638900000
| 19>  H        1.5256770000     0.2436260000     1.9317410000
| 20>  H        2.4952700000    -1.1543800000     2.4734960000
| 21>  H        1.2616980000    -1.3641670000     1.2014410000
| 22>  H        4.6145330000    -0.1156030000    -1.0196460000
| 23>  H        5.1489420000    -2.2270710000    -2.4056780000
| 24>  H        4.9443960000    -3.1929520000    -0.9401850000
| 25>  H        6.9366440000    -2.0679040000     0.0501350000
| 26>  H        7.0983720000    -1.0668210000    -1.3904020000
| 27>  H        7.3207370000    -3.9830020000    -1.4229480000
| 28>  H        8.5362350000    -2.9206830000    -1.6192750000
| 29> *
| 30>
| 31>                          ****END OF INPUT****
 Total Charge           Charge          ....    0
 Multiplicity           Mult            ....    1
 Number of Electrons    NEL             ....   56
 Basis Dimension        Dim             ....  148

MULLIKEN ATOMIC CHARGES
-----------------------
   0 C :    0.160410
   1 O :   -0.280379
   2 N :   -0.006092
   3 C :   -0.062629
   4 C :    0.057726
   5 C :    0.040190
   6 N :   -0.211439
   7 H :    0.028198
   8 H :    0.018024
   9 H :    0.021343
  10 H :    0.001682
  11 H :    0.031470
  12 H :    0.008551
  13 H :    0.006939
  14 H :    0.006340
  15 H :    0.089157
  16 H :    0.090509
Sum of atomic charges:   -0.0000000

LOEWDIN ATOMIC CHARGES
----------------------
   0 C :    0.041106
   1 O :   -0.092913
   2 N :   -0.006525
   3 C :   -0.026420
   4 C :   -0.054122
   5 C :    0.009151
   6 N :   -0.113252
   7 H :    0.022960
   8 H :    0.010501
   9 H :    0.011293
  10 H :    0.004427
  11 H :    0.038301
  12 H :    0.029098
  13 H :    0.002317
  14 H :    0.019185
  15 H :    0.050837
  16 H :    0.054056

  Mayer bond orders larger than 0.1
B(  0-C ,  1-O ) :   0.9782 B(  0-C ,  7-H ) :   0.9729 B(  0-C ,  8-H ) :   0.9670
B(  0-C ,  9-H ) :   0.9676 B(  1-O ,  2-N ) :   0.9497 B(  1-O ,  3-C ) :   0.1067
B(  2-N ,  3-C ) :   1.8937 B(  3-C ,  4-C ) :   1.0369 B(  3-C , 10-H ) :   0.9375
B(  4-C ,  5-C ) :   1.0757 B(  4-C , 11-H ) :   0.9094 B(  4-C , 12-H ) :   0.9220
B(  5-C ,  6-N ) :   1.0847 B(  5-C , 13-H ) :   0.9337 B(  5-C , 14-H ) :   0.9376
B(  6-N , 15-H ) :   0.9683 B(  6-N , 16-H ) :   0.9652

FINAL SINGLE POINT ENERGY      -342.417627438239

DIPOLE MOMENT
-------------
                                X             Y             Z
Electronic contribution:     -2.70012       2.01379       0.31119
Nuclear contribution   :      3.01039      -2.11276       0.04427
                        -----------------------------------------
Total Dipole Moment    :      0.31026      -0.09897       0.35546
                        -----------------------------------------
Magnitude (a.u.)       :      0.48209
Magnitude (Debye)      :      1.22537

                             ****ORCA TERMINATED NORMALLY****
TOTAL RUN TIME: 0 days 0 hours 0 minutes 7 seconds 473 msec
