                         Program Version 3.0.3 - RELEASE   -
|  1> ! RI PBE def2-SVP def2-SVP/J NBO PAL2
|  2> % maxcore 2000
|  3> % output
|  4>     # printlevel mini
|  5>     print[ P_Basis ] 0
|  6>     print[ P_SCFInfo ] 1
|  7>     print[ P_SCFIterInfo ] 1
|  8>     print[ P_OrbEn ] 0
|  9>     print[ P_Cartesian ] 0
| 10> end
| 11> *xyz 0 1
| 12>  C        2.3711070000    -0.5738260000    -2.4263000000
| 13>  O        3.2394340000    -0.1072670000    -1.4185110000
| 14>  N        3.7187020000    -1.1856270000    -0.7020270000
| 15>  C        4.5327760000    -0.8325480000     0.2121700000
| 16>  C        4.9508130000     0.5728150000     0.4831530000
| 17>  C        5.0767980000    -1.9433110000     1.0597540000
| 18>  N        6.5298900000    -1.9833980000     0.9739390000
| 19>  H        2.0173020000     0.3133950000    -2.9519060000
| 20>  H        1.5214220000    -1.1110760000    -1.9952490000
| 21>  H        2.8955230000    -1.2316760000    -3.1256340000
| 22>  H        4.1208700000     1.1332560000     0.9243710000
| 23>  H        5.2161290000     1.0836980000    -0.4439800000
| 24>  H        5.8025870000     0.5863420000     1.1615890000
| 25>  H        4.5699030000    -2.8718140000     0.7695620000
| 26>  H        4.8134840000    -1.7358450000     2.1039110000
| 27>  H        6.8169130000    -2.3242980000     0.0646710000
| 28>  H        6.9116550000    -2.6136200000     1.6668800000
| 29> *
| 30>
| 31>                          ****END OF INPUT****
 Total Charge           Charge          ....    0
 Multiplicity           Mult            ....    1
 Number of Electrons    NEL             ....   56
 Basis Dimension        Dim             ....  148

MULLIKEN ATOMIC CHARGES
-----------------------
   0 C :    0.165031
   1 O :   -0.284392
   2 N :    0.004803
   3 C :   -0.270976
   4 C :    0.092135
   5 C :    0.162425
   6 N :   -0.218567
   7 H :    0.026338
   8 H :    0.018163
   9 H :    0.017605
  10 H :    0.038748
  11 H :    0.035390
  12 H :    0.023608
  13 H :   -0.006534
  14 H :    0.013107
  15 H :    0.090304
  16 H :    0.092812
Sum of atomic charges:   -0.0000000

LOEWDIN ATOMIC CHARGES
----------------------
   0 C :    0.040828
   1 O :   -0.091924
   2 N :   -0.020853
   3 C :   -0.056947
   4 C :   -0.075803
   5 C :    0.006662
   6 N :   -0.105866
   7 H :    0.021708
   8 H :    0.010631
   9 H :    0.009910
  10 H :    0.044699
  11 H :    0.040840
  12 H :    0.033225
  13 H :    0.006731
  14 H :    0.029109
  15 H :    0.053400
  16 H :    0.053649

  Mayer bond orders larger than 0.1
B(  0-C ,  1-O ) :   0.9784 B(  0-C ,  7-H ) :   0.9731 B(  0-C ,  8-H ) :   0.9666
B(  0-C ,  9-H ) :   0.9673 B(  1-O ,  2-N ) :   0.9639 B(  2-N ,  3-C ) :   1.9088
B(  3-C ,  4-C ) :   1.0799 B(  3-C ,  5-C ) :   1.0612 B(  4-C , 10-H ) :   0.9328
B(  4-C , 11-H ) :   0.9314 B(  4-C , 12-H ) :   0.9350 B(  5-C ,  6-N ) :   1.0695
B(  5-C , 13-H ) :   0.9099 B(  5-C , 14-H ) :   0.9149 B(  6-N , 15-H ) :   0.9695
B(  6-N , 16-H ) :   0.9663

FINAL SINGLE POINT ENERGY      -342.426215055383

DIPOLE MOMENT
-------------
                                X             Y             Z
Electronic contribution:     -1.06435      -0.20051      -0.87114
Nuclear contribution   :      1.15144      -0.11535       0.91925
                        -----------------------------------------
Total Dipole Moment    :      0.08709      -0.31586       0.04811
                        -----------------------------------------
Magnitude (a.u.)       :      0.33116
Magnitude (Debye)      :      0.84174

                             ****ORCA TERMINATED NORMALLY****
TOTAL RUN TIME: 0 days 0 hours 0 minutes 7 seconds 689 msec
