                         Program Version 3.0.3 - RELEASE   -
|  1> ! RI PBE def2-SVP def2-SVP/J NBO PAL2
|  2> % maxcore 2000
|  3> % output
|  4>     # printlevel mini
|  5>     print[ P_Basis ] 0
|  6>     print[ P_SCFInfo ] 1
|  7>     print[ P_SCFIterInfo ] 1
|  8>     print[ P_OrbEn ] 0
|  9>     print[ P_Cartesian ] 0
| 10> end
| 11> *xyz 0 1
| 12>  C        1.4850490000    -0.2571620000    -0.8547550000
| 13>  O        2.8757760000    -0.2022410000    -0.5759150000
| 14>  N        3.2675370000     1.0892850000    -0.4589120000
| 15>  C        4.5200180000     1.1806610000    -0.2063640000
| 16>  C        5.4620280000     0.0314960000    -0.0529430000
| 17>  C        5.0122830000     2.5162840000    -0.0680100000
| 18>  N        5.4750670000     3.5634090000     0.0558050000
| 19>  H        1.2446430000    -1.3161310000    -0.9355700000
| 20>  H        1.2620810000     0.2517000000    -1.7946010000
| 21>  H        0.9130930000     0.1972600000    -0.0433650000
| 22>  H        5.1253010000    -0.6199290000     0.7568200000
| 23>  H        6.4704360000     0.3804270000     0.1585590000
| 24>  H        5.4687770000    -0.5683600000    -0.9659470000
| 25> *
| 26>
| 27>                          ****END OF INPUT****
 Total Charge           Charge          ....    0
 Multiplicity           Mult            ....    1
 Number of Electrons    NEL             ....   52
 Basis Dimension        Dim             ....  128

MULLIKEN ATOMIC CHARGES
-----------------------
   0 C :    0.156436
   1 O :   -0.262615
   2 N :    0.028997
   3 C :   -0.288261
   4 C :    0.112545
   5 C :   -0.074543
   6 N :    0.062259
   7 H :    0.040990
   8 H :    0.036578
   9 H :    0.039112
  10 H :    0.055523
  11 H :    0.037855
  12 H :    0.055123
Sum of atomic charges:   -0.0000000

LOEWDIN ATOMIC CHARGES
----------------------
   0 C :    0.052386
   1 O :   -0.058457
   2 N :    0.022794
   3 C :   -0.088529
   4 C :   -0.058303
   5 C :   -0.041604
   6 N :   -0.045384
   7 H :    0.028065
   8 H :    0.020676
   9 H :    0.020985
  10 H :    0.051419
  11 H :    0.044944
  12 H :    0.051009

  Mayer bond orders larger than 0.1
B(  0-C ,  1-O ) :   0.9468 B(  0-C ,  7-H ) :   0.9740 B(  0-C ,  8-H ) :   0.9702
B(  0-C ,  9-H ) :   0.9706 B(  1-O ,  2-N ) :   1.0224 B(  2-N ,  3-C ) :   1.8349
B(  3-C ,  4-C ) :   1.0783 B(  3-C ,  5-C ) :   1.1226 B(  4-C , 10-H ) :   0.9331
B(  4-C , 11-H ) :   0.9429 B(  4-C , 12-H ) :   0.9346 B(  5-C ,  6-N ) :   2.9916

FINAL SINGLE POINT ENERGY      -340.020269686106

DIPOLE MOMENT
-------------
                                X             Y             Z
Electronic contribution:      2.36269       5.76227       0.64492
Nuclear contribution   :     -3.00128      -7.42475      -0.82121
                        -----------------------------------------
Total Dipole Moment    :     -0.63859      -1.66248      -0.17629
                        -----------------------------------------
Magnitude (a.u.)       :      1.78961
Magnitude (Debye)      :      4.54883

                             ****ORCA TERMINATED NORMALLY****
TOTAL RUN TIME: 0 days 0 hours 0 minutes 5 seconds 683 msec
