                         Program Version 3.0.3 - RELEASE   -
|  1> ! RI PBE def2-SVP def2-SVP/J NBO PAL2
|  2> % maxcore 2000
|  3> % output
|  4>     # printlevel mini
|  5>     print[ P_Basis ] 0
|  6>     print[ P_SCFInfo ] 1
|  7>     print[ P_SCFIterInfo ] 1
|  8>     print[ P_OrbEn ] 0
|  9>     print[ P_Cartesian ] 0
| 10> end
| 11> *xyz 0 1
| 12>  C        1.6177110000     0.3929410000    -0.3935930000
| 13>  O        2.9899280000     0.3219280000    -0.0904000000
| 14>  N        3.2648490000    -0.9136380000     0.4737310000
| 15>  C        4.5046890000    -1.0162640000     0.7636080000
| 16>  C        5.0371050000    -2.2048250000     1.3599590000
| 17>  C        6.3434460000    -2.3132900000     1.6656370000
| 18>  N        6.9545410000    -3.3861400000     2.2299350000
| 19>  H        1.4575230000     1.3785780000    -0.8319870000
| 20>  H        1.0073650000     0.2874300000     0.5089010000
| 21>  H        1.3310190000    -0.3811270000    -1.1124610000
| 22>  H        5.1796410000    -0.1817690000     0.5544970000
| 23>  H        4.3468990000    -3.0193800000     1.5578700000
| 24>  H        7.0100490000    -1.4812840000     1.4558100000
| 25>  H        6.4366140000    -4.2114650000     2.4668110000
| 26>  H        7.9357320000    -3.3781070000     2.4227720000
| 27> *
| 28>
| 29>                          ****END OF INPUT****
 Total Charge           Charge          ....    0
 Multiplicity           Mult            ....    1
 Number of Electrons    NEL             ....   54
 Basis Dimension        Dim             ....  138

MULLIKEN ATOMIC CHARGES
-----------------------
   0 C :    0.168487
   1 O :   -0.288183
   2 N :   -0.039329
   3 C :   -0.011731
   4 C :   -0.001463
   5 C :    0.001919
   6 N :   -0.067540
   7 H :    0.021239
   8 H :    0.013292
   9 H :    0.012658
  10 H :   -0.021628
  11 H :   -0.021997
  12 H :    0.000706
  13 H :    0.112960
  14 H :    0.120609
Sum of atomic charges:   -0.0000000

LOEWDIN ATOMIC CHARGES
----------------------
   0 C :    0.038662
   1 O :   -0.099178
   2 N :   -0.039382
   3 C :   -0.040520
   4 C :   -0.123683
   5 C :    0.007677
   6 N :    0.018847
   7 H :    0.019457
   8 H :    0.007834
   9 H :    0.007498
  10 H :    0.002862
  11 H :    0.025097
  12 H :    0.026336
  13 H :    0.074304
  14 H :    0.074188

  Mayer bond orders larger than 0.1
B(  0-C ,  1-O ) :   0.9860 B(  0-C ,  7-H ) :   0.9732 B(  0-C ,  8-H ) :   0.9649
B(  0-C ,  9-H ) :   0.9648 B(  1-O ,  2-N ) :   0.9351 B(  2-N ,  3-C ) :   1.7607
B(  3-C ,  4-C ) :   1.1630 B(  3-C , 10-H ) :   0.9451 B(  4-C ,  5-C ) :   1.6185
B(  4-C , 11-H ) :   0.9607 B(  5-C ,  6-N ) :   1.2674 B(  5-C , 12-H ) :   0.9505
B(  6-N , 13-H ) :   0.9580 B(  6-N , 14-H ) :   0.9574

FINAL SINGLE POINT ENERGY      -341.223551470044

DIPOLE MOMENT
-------------
                                X             Y             Z
Electronic contribution:      1.26012      -0.03873       0.27226
Nuclear contribution   :     -0.15089      -0.70560       0.26146
                        -----------------------------------------
Total Dipole Moment    :      1.10923      -0.74432       0.53372
                        -----------------------------------------
Magnitude (a.u.)       :      1.43849
Magnitude (Debye)      :      3.65636

                             ****ORCA TERMINATED NORMALLY****
TOTAL RUN TIME: 0 days 0 hours 0 minutes 6 seconds 520 msec
