                         Program Version 3.0.3 - RELEASE   -
|  1> ! RI PBE def2-SVP def2-SVP/J NBO PAL2
|  2> % maxcore 2000
|  3> % output
|  4>     # printlevel mini
|  5>     print[ P_Basis ] 0
|  6>     print[ P_SCFInfo ] 1
|  7>     print[ P_SCFIterInfo ] 1
|  8>     print[ P_OrbEn ] 0
|  9>     print[ P_Cartesian ] 0
| 10> end
| 11> *xyz 0 1
| 12>  C        2.8918330000    -0.9991570000    -1.9171800000
| 13>  O        3.5647090000    -0.2841620000    -0.9047370000
| 14>  N        3.9142040000    -1.1484630000     0.1094720000
| 15>  C        4.5290650000    -0.5578630000     1.0447570000
| 16>  C        5.0025960000    -1.3028670000     2.2546070000
| 17>  C        4.7132420000    -2.7946190000     2.2035080000
| 18>  N        6.4046750000    -0.9499830000     2.4588720000
| 19>  H        2.6421970000    -0.2652380000    -2.6834460000
| 20>  H        1.9758380000    -1.4580180000    -1.5339320000
| 21>  H        3.5332000000    -1.7750280000    -2.3453250000
| 22>  H        4.7466100000     0.5103180000     0.9939910000
| 23>  H        4.4581040000    -0.8715410000     3.1068530000
| 24>  H        5.2291980000    -3.2582630000     1.3595150000
| 25>  H        3.6464490000    -2.9941280000     2.0874280000
| 26>  H        5.0587710000    -3.2690770000     3.1252620000
| 27>  H        6.9747660000    -1.3727890000     1.7344440000
| 28>  H        6.7315340000    -1.3168330000     3.3444190000
| 29> *
| 30>
| 31>                          ****END OF INPUT****
 Total Charge           Charge          ....    0
 Multiplicity           Mult            ....    1
 Number of Electrons    NEL             ....   56
 Basis Dimension        Dim             ....  148

MULLIKEN ATOMIC CHARGES
-----------------------
   0 C :    0.157639
   1 O :   -0.275725
   2 N :    0.004406
   3 C :   -0.033421
   4 C :   -0.025541
   5 C :    0.066194
   6 N :   -0.194788
   7 H :    0.032060
   8 H :    0.018701
   9 H :    0.019547
  10 H :    0.006338
  11 H :    0.020345
  12 H :    0.008897
  13 H :    0.019049
  14 H :    0.001668
  15 H :    0.088497
  16 H :    0.086132
Sum of atomic charges:   -0.0000000

LOEWDIN ATOMIC CHARGES
----------------------
   0 C :    0.040689
   1 O :   -0.089216
   2 N :   -0.005163
   3 C :   -0.029668
   4 C :   -0.016036
   5 C :   -0.073495
   6 N :   -0.092473
   7 H :    0.023818
   8 H :    0.010938
   9 H :    0.010639
  10 H :    0.009094
  11 H :    0.035666
  12 H :    0.023847
  13 H :    0.029987
  14 H :    0.019679
  15 H :    0.050882
  16 H :    0.050812

  Mayer bond orders larger than 0.1
B(  0-C ,  1-O ) :   0.9792 B(  0-C ,  7-H ) :   0.9735 B(  0-C ,  8-H ) :   0.9668
B(  0-C ,  9-H ) :   0.9671 B(  1-O ,  2-N ) :   0.9480 B(  1-O ,  3-C ) :   0.1081
B(  2-N ,  3-C ) :   1.9144 B(  3-C ,  4-C ) :   1.0036 B(  3-C , 10-H ) :   0.9503
B(  4-C ,  5-C ) :   1.0975 B(  4-C ,  6-N ) :   1.0596 B(  4-C , 11-H ) :   0.8891
B(  5-C , 12-H ) :   0.9465 B(  5-C , 13-H ) :   0.9398 B(  5-C , 14-H ) :   0.9525
B(  6-N , 15-H ) :   0.9714 B(  6-N , 16-H ) :   0.9662

FINAL SINGLE POINT ENERGY      -342.420629920194

DIPOLE MOMENT
-------------
                                X             Y             Z
Electronic contribution:     -0.54996       3.78944      -1.73069
Nuclear contribution   :      0.62236      -4.21911       1.82154
                        -----------------------------------------
Total Dipole Moment    :      0.07241      -0.42967       0.09086
                        -----------------------------------------
Magnitude (a.u.)       :      0.44510
Magnitude (Debye)      :      1.13136

                             ****ORCA TERMINATED NORMALLY****
TOTAL RUN TIME: 0 days 0 hours 0 minutes 7 seconds 692 msec
