                         Program Version 3.0.3 - RELEASE   -
|  1> ! RI PBE def2-SVP def2-SVP/J NBO PAL2
|  2> % maxcore 2000
|  3> % output
|  4>     # printlevel mini
|  5>     print[ P_Basis ] 0
|  6>     print[ P_SCFInfo ] 1
|  7>     print[ P_SCFIterInfo ] 1
|  8>     print[ P_OrbEn ] 0
|  9>     print[ P_Cartesian ] 0
| 10> end
| 11> *xyz 0 1
| 12>  C        1.4707390000     0.7496630000     0.0502400000
| 13>  O        2.8355240000     0.3822880000    -0.0188830000
| 14>  N        3.1901880000    -0.2850350000     1.1196070000
| 15>  C        4.4113800000    -0.6164340000     1.1216800000
| 16>  C        4.9347820000    -1.3831780000     2.2960870000
| 17>  C        6.0861310000    -0.7345050000     2.9102030000
| 18>  N        6.9993560000    -0.2209500000     3.3820900000
| 19>  H        1.2593220000     1.2679330000    -0.8842590000
| 20>  H        1.2891780000     1.4189650000     0.8948010000
| 21>  H        0.8330060000    -0.1335670000     0.1376310000
| 22>  H        5.0780820000    -0.3666750000     0.2963400000
| 23>  H        5.2422910000    -2.3886580000     1.9863540000
| 24>  H        4.1395200000    -1.4921350000     3.0368080000
| 25> *
| 26>
| 27>                          ****END OF INPUT****
 Total Charge           Charge          ....    0
 Multiplicity           Mult            ....    1
 Number of Electrons    NEL             ....   52
 Basis Dimension        Dim             ....  128

MULLIKEN ATOMIC CHARGES
-----------------------
   0 C :    0.152436
   1 O :   -0.272068
   2 N :    0.009050
   3 C :   -0.054942
   4 C :    0.131384
   5 C :   -0.275198
   6 N :    0.046211
   7 H :    0.039029
   8 H :    0.030728
   9 H :    0.028465
  10 H :    0.025949
  11 H :    0.074041
  12 H :    0.064916
Sum of atomic charges:   -0.0000000

LOEWDIN ATOMIC CHARGES
----------------------
   0 C :    0.045907
   1 O :   -0.078239
   2 N :    0.006307
   3 C :   -0.020963
   4 C :   -0.061088
   5 C :   -0.044781
   6 N :   -0.057755
   7 H :    0.027467
   8 H :    0.016101
   9 H :    0.015394
  10 H :    0.015090
  11 H :    0.069326
  12 H :    0.067233

  Mayer bond orders larger than 0.1
B(  0-C ,  1-O ) :   0.9613 B(  0-C ,  7-H ) :   0.9741 B(  0-C ,  8-H ) :   0.9695
B(  0-C ,  9-H ) :   0.9689 B(  1-O ,  2-N ) :   0.9778 B(  1-O ,  3-C ) :   0.1186
B(  2-N ,  3-C ) :   1.8953 B(  3-C ,  4-C ) :   1.0340 B(  3-C , 10-H ) :   0.9449
B(  4-C ,  5-C ) :   1.0726 B(  4-C , 11-H ) :   0.8901 B(  4-C , 12-H ) :   0.8847
B(  5-C ,  6-N ) :   3.0613

FINAL SINGLE POINT ENERGY      -340.013266244864

DIPOLE MOMENT
-------------
                                X             Y             Z
Electronic contribution:      5.53044      -0.45497       2.46432
Nuclear contribution   :     -6.74429      -0.05824      -3.19647
                        -----------------------------------------
Total Dipole Moment    :     -1.21385      -0.51320      -0.73215
                        -----------------------------------------
Magnitude (a.u.)       :      1.50760
Magnitude (Debye)      :      3.83201

                             ****ORCA TERMINATED NORMALLY****
TOTAL RUN TIME: 0 days 0 hours 0 minutes 5 seconds 571 msec
