                         Program Version 3.0.3 - RELEASE   -
|  1> ! RI PBE def2-SVP def2-SVP/J NBO PAL2
|  2> % maxcore 2000
|  3> % output
|  4>     # printlevel mini
|  5>     print[ P_Basis ] 0
|  6>     print[ P_SCFInfo ] 1
|  7>     print[ P_SCFIterInfo ] 1
|  8>     print[ P_OrbEn ] 0
|  9>     print[ P_Cartesian ] 0
| 10> end
| 11> *xyz 0 1
| 12>  C        2.2526670000    -1.1582590000    -0.8407660000
| 13>  O        2.4504590000    -0.4238080000     0.3655250000
| 14>  N        2.8807450000    -1.2599030000     1.3617530000
| 15>  C        1.9243550000    -1.7936620000     2.2014520000
| 16>  C        0.6111830000    -1.6015250000     2.1176090000
| 17>  C        4.2376070000    -1.2952770000     1.5998140000
| 18>  N        5.1549150000    -0.6873720000     0.9786360000
| 19>  H        1.9007530000    -0.4287020000    -1.5694580000
| 20>  H        1.4986870000    -1.9364300000    -0.7002760000
| 21>  H        3.1907650000    -1.6024420000    -1.1832530000
| 22>  H        2.3606010000    -2.4257850000     2.9675830000
| 23>  H        0.1712670000    -0.9565040000     1.3696160000
| 24>  H       -0.0410000000    -2.0881710000     2.8280680000
| 25>  H        4.4804850000    -1.9598150000     2.4301490000
| 26>  H        4.7633120000    -0.0854450000     0.2549590000
| 27> *
| 28>
| 29>                          ****END OF INPUT****
 Total Charge           Charge          ....    0
 Multiplicity           Mult            ....    1
 Number of Electrons    NEL             ....   54
 Basis Dimension        Dim             ....  138

MULLIKEN ATOMIC CHARGES
-----------------------
   0 C :    0.127891
   1 O :   -0.266693
   2 N :   -0.033821
   3 C :    0.049192
   4 C :   -0.068335
   5 C :    0.005449
   6 N :   -0.120244
   7 H :    0.048954
   8 H :    0.041127
   9 H :    0.037770
  10 H :    0.014779
  11 H :    0.030264
  12 H :    0.028628
  13 H :    0.017991
  14 H :    0.087048
Sum of atomic charges:    0.0000000

LOEWDIN ATOMIC CHARGES
----------------------
   0 C :    0.054289
   1 O :   -0.085056
   2 N :    0.076294
   3 C :   -0.006743
   4 C :   -0.123306
   5 C :    0.007797
   6 N :   -0.141992
   7 H :    0.031536
   8 H :    0.017462
   9 H :    0.015326
  10 H :    0.034083
  11 H :    0.025413
  12 H :    0.031987
  13 H :    0.020763
  14 H :    0.042146

  Mayer bond orders larger than 0.1
B(  0-C ,  1-O ) :   0.9417 B(  0-C ,  7-H ) :   0.9745 B(  0-C ,  8-H ) :   0.9679
B(  0-C ,  9-H ) :   0.9694 B(  1-O ,  2-N ) :   0.9536 B(  2-N ,  3-C ) :   1.0861
B(  2-N ,  5-C ) :   1.0606 B(  3-C ,  4-C ) :   1.8878 B(  3-C , 10-H ) :   0.9447
B(  4-C , 11-H ) :   0.9417 B(  4-C , 12-H ) :   0.9348 B(  5-C ,  6-N ) :   2.0127
B(  5-C , 13-H ) :   0.9342 B(  6-N , 14-H ) :   0.9328

FINAL SINGLE POINT ENERGY      -341.202558334306

DIPOLE MOMENT
-------------
                                X             Y             Z
Electronic contribution:      2.84231       1.59653       1.58185
Nuclear contribution   :     -3.68723      -2.07371      -1.95865
                        -----------------------------------------
Total Dipole Moment    :     -0.84492      -0.47718      -0.37680
                        -----------------------------------------
Magnitude (a.u.)       :      1.04094
Magnitude (Debye)      :      2.64587

                             ****ORCA TERMINATED NORMALLY****
TOTAL RUN TIME: 0 days 0 hours 0 minutes 6 seconds 772 msec
