                         Program Version 3.0.3 - RELEASE   -
|  1> ! RI PBE def2-SVP def2-SVP/J NBO PAL2
|  2> % maxcore 2000
|  3> % output
|  4>     # printlevel mini
|  5>     print[ P_Basis ] 0
|  6>     print[ P_SCFInfo ] 1
|  7>     print[ P_SCFIterInfo ] 1
|  8>     print[ P_OrbEn ] 0
|  9>     print[ P_Cartesian ] 0
| 10> end
| 11> *xyz 0 1
| 12>  C        3.8663080000    -0.7654040000     0.9533160000
| 13>  O        3.7302460000     0.4278560000     1.7001520000
| 14>  N        3.9047300000     1.5283240000     0.8574460000
| 15>  C        2.6460910000     2.2287090000     0.7241090000
| 16>  C        5.0795240000     2.2364160000     1.1455120000
| 17>  C        5.2380630000     3.5217890000     0.3906550000
| 18>  N        6.0029270000     1.8344570000     1.9159530000
| 19>  H        3.7188420000    -1.5792770000     1.6644310000
| 20>  H        4.8617250000    -0.8410520000     0.5065770000
| 21>  H        3.1087740000    -0.8288870000     0.1655230000
| 22>  H        1.9006440000     1.5372760000     0.3300810000
| 23>  H        2.7583500000     3.0454180000     0.0133750000
| 24>  H        2.2893420000     2.6267630000     1.6819810000
| 25>  H        4.5801920000     4.2985590000     0.7895010000
| 26>  H        5.0100660000     3.3978930000    -0.6704230000
| 27>  H        6.2683080000     3.8500350000     0.5063790000
| 28>  H        5.7176600000     0.9719250000     2.3774420000
| 29> *
| 30>
| 31>                          ****END OF INPUT****
 Total Charge           Charge          ....    0
 Multiplicity           Mult            ....    1
 Number of Electrons    NEL             ....   56
 Basis Dimension        Dim             ....  148

MULLIKEN ATOMIC CHARGES
-----------------------
   0 C :    0.152224
   1 O :   -0.287982
   2 N :   -0.136916
   3 C :    0.109099
   4 C :   -0.141266
   5 C :    0.021569
   6 N :   -0.093610
   7 H :    0.036149
   8 H :    0.028242
   9 H :    0.019924
  10 H :    0.030836
  11 H :    0.036964
  12 H :    0.024159
  13 H :    0.041592
  14 H :    0.041675
  15 H :    0.036293
  16 H :    0.081047
Sum of atomic charges:   -0.0000000

LOEWDIN ATOMIC CHARGES
----------------------
   0 C :    0.046957
   1 O :   -0.102648
   2 N :    0.011481
   3 C :    0.004034
   4 C :   -0.012206
   5 C :   -0.071299
   6 N :   -0.150960
   7 H :    0.025613
   8 H :    0.012684
   9 H :    0.009038
  10 H :    0.026414
  11 H :    0.031961
  12 H :    0.016077
  13 H :    0.038621
  14 H :    0.034965
  15 H :    0.044924
  16 H :    0.034344

  Mayer bond orders larger than 0.1
B(  0-C ,  1-O ) :   0.9687 B(  0-C ,  7-H ) :   0.9710 B(  0-C ,  8-H ) :   0.9691
B(  0-C ,  9-H ) :   0.9666 B(  1-O ,  2-N ) :   0.9250 B(  2-N ,  3-C ) :   0.9963
B(  2-N ,  4-C ) :   1.0355 B(  3-C , 10-H ) :   0.9646 B(  3-C , 11-H ) :   0.9539
B(  3-C , 12-H ) :   0.9535 B(  4-C ,  5-C ) :   1.0509 B(  4-C ,  6-N ) :   2.0793
B(  5-C , 13-H ) :   0.9435 B(  5-C , 14-H ) :   0.9486 B(  5-C , 15-H ) :   0.9396
B(  6-N , 16-H ) :   0.9224

FINAL SINGLE POINT ENERGY      -342.421647233773

DIPOLE MOMENT
-------------
                                X             Y             Z
Electronic contribution:      1.76155      -1.23344       2.71866
Nuclear contribution   :     -2.79452       0.99663      -3.37251
                        -----------------------------------------
Total Dipole Moment    :     -1.03297      -0.23680      -0.65384
                        -----------------------------------------
Magnitude (a.u.)       :      1.24524
Magnitude (Debye)      :      3.16514

                             ****ORCA TERMINATED NORMALLY****
TOTAL RUN TIME: 0 days 0 hours 0 minutes 7 seconds 730 msec
