                         Program Version 3.0.3 - RELEASE   -
|  1> ! RI PBE def2-SVP def2-SVP/J NBO PAL2
|  2> % maxcore 2000
|  3> % output
|  4>     # printlevel mini
|  5>     print[ P_Basis ] 0
|  6>     print[ P_SCFInfo ] 1
|  7>     print[ P_SCFIterInfo ] 1
|  8>     print[ P_OrbEn ] 0
|  9>     print[ P_Cartesian ] 0
| 10> end
| 11> *xyz 0 1
| 12>  C        6.1559440000     0.5639030000    -0.0147880000
| 13>  O        5.9400820000     0.0583830000    -1.3146980000
| 14>  N        4.5963020000     0.0994890000    -1.6089090000
| 15>  C        4.3415010000    -0.3346560000    -2.7718860000
| 16>  C        2.9414340000    -0.3765680000    -3.2820130000
| 17>  C        1.8780770000    -0.0435050000    -2.2479230000
| 18>  O        1.9851060000     1.2654670000    -1.7479070000
| 19>  H        7.2288680000     0.4852720000     0.1585280000
| 20>  H        5.6176420000    -0.0266220000     0.7319130000
| 21>  H        5.8489700000     1.6114610000     0.0578530000
| 22>  H        5.1562390000    -0.6734810000    -3.4157170000
| 23>  H        2.7529520000    -1.3772340000    -3.6905990000
| 24>  H        2.8616470000     0.3144770000    -4.1310160000
| 25>  H        1.9202300000    -0.7826960000    -1.4358200000
| 26>  H        0.8919360000    -0.1216030000    -2.7116640000
| 27>  H        2.8395710000     1.3062030000    -1.3005750000
| 28> *
| 29>
| 30>                          ****END OF INPUT****
 Total Charge           Charge          ....    0
 Multiplicity           Mult            ....    1
 Number of Electrons    NEL             ....   56
 Basis Dimension        Dim             ....  143

MULLIKEN ATOMIC CHARGES
-----------------------
   0 C :    0.153575
   1 O :   -0.273114
   2 N :   -0.030559
   3 C :   -0.039424
   4 C :    0.001977
   5 C :    0.175946
   6 O :   -0.296040
   7 H :    0.037722
   8 H :    0.022070
   9 H :    0.023611
  10 H :    0.012543
  11 H :    0.021750
  12 H :    0.040918
  13 H :    0.001153
  14 H :    0.004081
  15 H :    0.143792
Sum of atomic charges:   -0.0000000

LOEWDIN ATOMIC CHARGES
----------------------
   0 C :    0.042684
   1 O :   -0.087481
   2 N :   -0.010874
   3 C :   -0.013830
   4 C :   -0.073452
   5 C :    0.055580
   6 O :   -0.128919
   7 H :    0.026637
   8 H :    0.012639
   9 H :    0.012128
  10 H :    0.010622
  11 H :    0.041041
  12 H :    0.044130
  13 H :    0.006078
  14 H :    0.020748
  15 H :    0.042268

  Mayer bond orders larger than 0.1
B(  0-C ,  1-O ) :   0.9741 B(  0-C ,  7-H ) :   0.9742 B(  0-C ,  8-H ) :   0.9666
B(  0-C ,  9-H ) :   0.9683 B(  1-O ,  2-N ) :   0.9551 B(  1-O ,  3-C ) :   0.1060
B(  2-N ,  3-C ) :   1.8754 B(  3-C ,  4-C ) :   1.0424 B(  3-C , 10-H ) :   0.9428
B(  4-C ,  5-C ) :   1.0868 B(  4-C , 11-H ) :   0.9035 B(  4-C , 12-H ) :   0.8974
B(  5-C ,  6-O ) :   1.0850 B(  5-C , 13-H ) :   0.9359 B(  5-C , 14-H ) :   0.9350
B(  6-O , 15-H ) :   0.9663

FINAL SINGLE POINT ENERGY      -362.263632444089

DIPOLE MOMENT
-------------
                                X             Y             Z
Electronic contribution:      1.24382       0.55714      -0.62200
Nuclear contribution   :     -0.66594      -1.01815       0.58064
                        -----------------------------------------
Total Dipole Moment    :      0.57788      -0.46100      -0.04136
                        -----------------------------------------
Magnitude (a.u.)       :      0.74039
Magnitude (Debye)      :      1.88193

                             ****ORCA TERMINATED NORMALLY****
TOTAL RUN TIME: 0 days 0 hours 0 minutes 6 seconds 527 msec
