                         Program Version 3.0.3 - RELEASE   -
|  1> ! RI PBE def2-SVP def2-SVP/J NBO PAL2
|  2> % maxcore 2000
|  3> % output
|  4>     # printlevel mini
|  5>     print[ P_Basis ] 0
|  6>     print[ P_SCFInfo ] 1
|  7>     print[ P_SCFIterInfo ] 1
|  8>     print[ P_OrbEn ] 0
|  9>     print[ P_Cartesian ] 0
| 10> end
| 11> *xyz 0 1
| 12>  C        3.0264160000    -1.3465040000    -1.6066620000
| 13>  O        3.8642430000    -0.7311430000    -0.6521200000
| 14>  N        3.3165420000     0.4766080000    -0.2808060000
| 15>  C        4.0170740000     1.0774250000     0.5980180000
| 16>  C        5.2778010000     0.5511040000     1.1956750000
| 17>  C        3.4914270000     2.4106260000     1.0377960000
| 18>  O        3.2126080000     2.4426970000     2.4243780000
| 19>  H        3.5113760000    -2.2870190000    -1.8680780000
| 20>  H        2.9246850000    -0.7222340000    -2.4985990000
| 21>  H        2.0350740000    -1.5456570000    -1.1898330000
| 22>  H        5.1772310000    -0.5049400000     1.4505840000
| 23>  H        5.5399820000     1.1191630000     2.0876870000
| 24>  H        6.0959450000     0.6249300000     0.4725900000
| 25>  H        2.6141790000     2.6635310000     0.4334220000
| 26>  H        4.2536310000     3.1787640000     0.8753240000
| 27>  H        2.5025870000     1.8176380000     2.5952450000
| 28> *
| 29>
| 30>                          ****END OF INPUT****
 Total Charge           Charge          ....    0
 Multiplicity           Mult            ....    1
 Number of Electrons    NEL             ....   56
 Basis Dimension        Dim             ....  143

MULLIKEN ATOMIC CHARGES
-----------------------
   0 C :    0.167270
   1 O :   -0.281083
   2 N :    0.008897
   3 C :   -0.320943
   4 C :    0.098615
   5 C :    0.283070
   6 O :   -0.289202
   7 H :    0.028624
   8 H :    0.020277
   9 H :    0.017671
  10 H :    0.037403
  11 H :    0.020279
  12 H :    0.043574
  13 H :   -0.000055
  14 H :    0.013226
  15 H :    0.152379
Sum of atomic charges:    0.0000000

LOEWDIN ATOMIC CHARGES
----------------------
   0 C :    0.043273
   1 O :   -0.088807
   2 N :   -0.016655
   3 C :   -0.078048
   4 C :   -0.074686
   5 C :    0.055517
   6 O :   -0.117453
   7 H :    0.022743
   8 H :    0.011921
   9 H :    0.011015
  10 H :    0.040573
  11 H :    0.034229
  12 H :    0.047669
  13 H :    0.011183
  14 H :    0.027531
  15 H :    0.069992

  Mayer bond orders larger than 0.1
B(  0-C ,  1-O ) :   0.9747 B(  0-C ,  7-H ) :   0.9733 B(  0-C ,  8-H ) :   0.9676
B(  0-C ,  9-H ) :   0.9673 B(  1-O ,  2-N ) :   0.9686 B(  2-N ,  3-C ) :   1.8965
B(  3-C ,  4-C ) :   1.0739 B(  3-C ,  5-C ) :   1.0507 B(  4-C , 10-H ) :   0.9322
B(  4-C , 11-H ) :   0.9364 B(  4-C , 12-H ) :   0.9338 B(  5-C ,  6-O ) :   1.0253
B(  5-C , 13-H ) :   0.9204 B(  5-C , 14-H ) :   0.9150 B(  6-O , 15-H ) :   0.9845

FINAL SINGLE POINT ENERGY      -362.266240518180

DIPOLE MOMENT
-------------
                                X             Y             Z
Electronic contribution:     -1.12733       1.26600       0.93406
Nuclear contribution   :      1.01836      -1.71598      -1.17575
                        -----------------------------------------
Total Dipole Moment    :     -0.10897      -0.44998      -0.24169
                        -----------------------------------------
Magnitude (a.u.)       :      0.52228
Magnitude (Debye)      :      1.32752

                             ****ORCA TERMINATED NORMALLY****
TOTAL RUN TIME: 0 days 0 hours 0 minutes 6 seconds 853 msec
