                         Program Version 3.0.3 - RELEASE   -
|  1> ! RI PBE def2-SVP def2-SVP/J NBO PAL2
|  2> % maxcore 2000
|  3> % output
|  4>     # printlevel mini
|  5>     print[ P_Basis ] 0
|  6>     print[ P_SCFInfo ] 1
|  7>     print[ P_SCFIterInfo ] 1
|  8>     print[ P_OrbEn ] 0
|  9>     print[ P_Cartesian ] 0
| 10> end
| 11> *xyz 0 1
| 12>  C        3.8895480000     0.7293690000     1.1810580000
| 13>  O        4.9742890000     0.2285160000     0.4165050000
| 14>  N        4.5110190000    -0.3765170000    -0.7013120000
| 15>  C        5.4500550000    -0.8501360000    -1.4336550000
| 16>  C        6.9053910000    -0.7796360000    -1.1498320000
| 17>  C        4.9373360000    -1.5090070000    -2.6518100000
| 18>  O        5.6444070000    -2.0228510000    -3.4805440000
| 19>  H        4.3374590000     1.1980970000     2.0560170000
| 20>  H        3.2284800000    -0.0836540000     1.4886310000
| 21>  H        3.3244080000     1.4677900000     0.6083780000
| 22>  H        7.2274850000     0.2607350000    -1.0623280000
| 23>  H        7.4573650000    -1.2684180000    -1.9512180000
| 24>  H        7.1326850000    -1.2643930000    -0.1974040000
| 25>  H        3.8346740000    -1.4913940000    -2.7415850000
| 26> *
| 27>
| 28>                          ****END OF INPUT****
 Total Charge           Charge          ....    0
 Multiplicity           Mult            ....    1
 Number of Electrons    NEL             ....   54
 Basis Dimension        Dim             ....  133

MULLIKEN ATOMIC CHARGES
-----------------------
   0 C :    0.157474
   1 O :   -0.254795
   2 N :    0.019164
   3 C :   -0.241660
   4 C :    0.110644
   5 C :    0.163755
   6 O :   -0.160835
   7 H :    0.040189
   8 H :    0.034412
   9 H :    0.034049
  10 H :    0.042482
  11 H :    0.030249
  12 H :    0.042445
  13 H :   -0.017575
Sum of atomic charges:   -0.0000000

LOEWDIN ATOMIC CHARGES
----------------------
   0 C :    0.050386
   1 O :   -0.054450
   2 N :    0.016120
   3 C :   -0.090546
   4 C :   -0.069172
   5 C :    0.067234
   6 O :   -0.111169
   7 H :    0.027436
   8 H :    0.019465
   9 H :    0.019161
  10 H :    0.046808
  11 H :    0.038562
  12 H :    0.047194
  13 H :   -0.007031

  Mayer bond orders larger than 0.1
B(  0-C ,  1-O ) :   0.9502 B(  0-C ,  7-H ) :   0.9742 B(  0-C ,  8-H ) :   0.9698
B(  0-C ,  9-H ) :   0.9699 B(  1-O ,  2-N ) :   1.0221 B(  2-N ,  3-C ) :   1.7749
B(  3-C ,  4-C ) :   1.0942 B(  3-C ,  5-C ) :   0.9957 B(  4-C , 10-H ) :   0.9337
B(  4-C , 11-H ) :   0.9263 B(  4-C , 12-H ) :   0.9315 B(  5-C ,  6-O ) :   2.1104
B(  5-C , 13-H ) :   0.9258

FINAL SINGLE POINT ENERGY      -361.077489001479

DIPOLE MOMENT
-------------
                                X             Y             Z
Electronic contribution:     -0.47833      -2.36528      -4.22136
Nuclear contribution   :      0.22564       3.04977       5.40357
                        -----------------------------------------
Total Dipole Moment    :     -0.25270       0.68449       1.18221
                        -----------------------------------------
Magnitude (a.u.)       :      1.38925
Magnitude (Debye)      :      3.53119

                             ****ORCA TERMINATED NORMALLY****
TOTAL RUN TIME: 0 days 0 hours 0 minutes 6 seconds 333 msec
