                         Program Version 3.0.3 - RELEASE   -
|  1> ! RI PBE def2-SVP def2-SVP/J NBO PAL2
|  2> % maxcore 2000
|  3> % output
|  4>     # printlevel mini
|  5>     print[ P_Basis ] 0
|  6>     print[ P_SCFInfo ] 1
|  7>     print[ P_SCFIterInfo ] 1
|  8>     print[ P_OrbEn ] 0
|  9>     print[ P_Cartesian ] 0
| 10> end
| 11> *xyz 0 1
| 12>  C        1.3160900000    -0.4435750000     0.0849530000
| 13>  O        2.7084750000    -0.4303160000    -0.1519410000
| 14>  N        3.0634460000     0.7558300000    -0.7427990000
| 15>  C        4.2992830000     0.8423350000    -0.9932160000
| 16>  C        4.8157760000     2.0924490000    -1.6338120000
| 17>  C        5.5919500000     1.7799010000    -2.9032200000
| 18>  O        3.7863000000     3.0020550000    -1.9157150000
| 19>  H        1.1058780000    -1.4053360000     0.5519300000
| 20>  H        0.7576480000    -0.3577790000    -0.8512950000
| 21>  H        1.0247130000     0.3660190000     0.7598660000
| 22>  H        4.9924790000     0.0365040000    -0.7487350000
| 23>  H        5.5137980000     2.5498540000    -0.9116760000
| 24>  H        4.9402920000     1.2977150000    -3.6346220000
| 25>  H        6.4413910000     1.1242220000    -2.6955450000
| 26>  H        5.9687990000     2.7085050000    -3.3341510000
| 27>  H        2.9764000000     2.6375260000    -1.5345020000
| 28> *
| 29>
| 30>                          ****END OF INPUT****
 Total Charge           Charge          ....    0
 Multiplicity           Mult            ....    1
 Number of Electrons    NEL             ....   56
 Basis Dimension        Dim             ....  143

MULLIKEN ATOMIC CHARGES
-----------------------
   0 C :    0.153897
   1 O :   -0.272752
   2 N :   -0.037348
   3 C :   -0.023226
   4 C :    0.098236
   5 C :    0.003905
   6 O :   -0.253183
   7 H :    0.035677
   8 H :    0.025591
   9 H :    0.025424
  10 H :    0.009530
  11 H :    0.016315
  12 H :    0.025424
  13 H :    0.016037
  14 H :    0.033838
  15 H :    0.142634
Sum of atomic charges:    0.0000000

LOEWDIN ATOMIC CHARGES
----------------------
   0 C :    0.044056
   1 O :   -0.083694
   2 N :   -0.014003
   3 C :   -0.028006
   4 C :    0.033713
   5 C :   -0.066409
   6 O :   -0.111679
   7 H :    0.026278
   8 H :    0.013480
   9 H :    0.013091
  10 H :    0.012929
  11 H :    0.023326
  12 H :    0.028681
  13 H :    0.026611
  14 H :    0.033864
  15 H :    0.047760

  Mayer bond orders larger than 0.1
B(  0-C ,  1-O ) :   0.9684 B(  0-C ,  7-H ) :   0.9740 B(  0-C ,  8-H ) :   0.9682
B(  0-C ,  9-H ) :   0.9684 B(  1-O ,  2-N ) :   0.9622 B(  1-O ,  3-C ) :   0.1065
B(  2-N ,  3-C ) :   1.8663 B(  3-C ,  4-C ) :   0.9985 B(  3-C , 10-H ) :   0.9427
B(  4-C ,  5-C ) :   1.0469 B(  4-C ,  6-O ) :   1.1563 B(  4-C , 11-H ) :   0.8925
B(  5-C , 12-H ) :   0.9578 B(  5-C , 13-H ) :   0.9508 B(  5-C , 14-H ) :   0.9538
B(  6-O , 15-H ) :   0.9488

FINAL SINGLE POINT ENERGY      -362.264956018573

DIPOLE MOMENT
-------------
                                X             Y             Z
Electronic contribution:     -1.15879       0.15283       1.99859
Nuclear contribution   :      1.05953      -0.76810      -1.68642
                        -----------------------------------------
Total Dipole Moment    :     -0.09927      -0.61527       0.31217
                        -----------------------------------------
Magnitude (a.u.)       :      0.69704
Magnitude (Debye)      :      1.77172

                             ****ORCA TERMINATED NORMALLY****
TOTAL RUN TIME: 0 days 0 hours 0 minutes 7 seconds 98 msec
