                         Program Version 3.0.3 - RELEASE   -
|  1> ! RI PBE def2-SVP def2-SVP/J NBO PAL2
|  2> % maxcore 2000
|  3> % output
|  4>     # printlevel mini
|  5>     print[ P_Basis ] 0
|  6>     print[ P_SCFInfo ] 1
|  7>     print[ P_SCFIterInfo ] 1
|  8>     print[ P_OrbEn ] 0
|  9>     print[ P_Cartesian ] 0
| 10> end
| 11> *xyz 0 1
| 12>  C        2.0920250000     0.6907710000     0.2020960000
| 13>  O        3.4317440000     0.2339830000     0.1221070000
| 14>  N        3.5155120000    -1.0447050000     0.5612680000
| 15>  C        4.7004660000    -1.5045370000     0.5102890000
| 16>  C        4.9637780000    -2.8923420000     0.9557640000
| 17>  C        3.8143890000    -3.7164370000     1.4565830000
| 18>  O        6.0974630000    -3.3125880000     0.8999880000
| 19>  H        2.1099620000     1.7158010000    -0.1650980000
| 20>  H        1.7378160000     0.6706430000     1.2351780000
| 21>  H        1.4376930000     0.0811520000    -0.4250780000
| 22>  H        5.5453140000    -0.9188680000     0.1493570000
| 23>  H        3.0469880000    -3.8060130000     0.6846960000
| 24>  H        3.3415250000    -3.2281760000     2.3114190000
| 25>  H        4.1804360000    -4.7011860000     1.7401190000
| 26> *
| 27>
| 28>                          ****END OF INPUT****
 Total Charge           Charge          ....    0
 Multiplicity           Mult            ....    1
 Number of Electrons    NEL             ....   54
 Basis Dimension        Dim             ....  133

MULLIKEN ATOMIC CHARGES
-----------------------
   0 C :    0.149647
   1 O :   -0.249943
   2 N :    0.029428
   3 C :   -0.006596
   4 C :   -0.036895
   5 C :    0.048663
   6 O :   -0.165499
   7 H :    0.042266
   8 H :    0.033227
   9 H :    0.034129
  10 H :    0.004487
  11 H :    0.045080
  12 H :    0.040691
  13 H :    0.031314
Sum of atomic charges:    0.0000000

LOEWDIN ATOMIC CHARGES
----------------------
   0 C :    0.048336
   1 O :   -0.056194
   2 N :    0.021477
   3 C :   -0.054909
   4 C :    0.031673
   5 C :   -0.086827
   6 O :   -0.118385
   7 H :    0.028732
   8 H :    0.018074
   9 H :    0.018413
  10 H :    0.016753
  11 H :    0.048028
  12 H :    0.047331
  13 H :    0.037499

  Mayer bond orders larger than 0.1
B(  0-C ,  1-O ) :   0.9553 B(  0-C ,  7-H ) :   0.9737 B(  0-C ,  8-H ) :   0.9694
B(  0-C ,  9-H ) :   0.9696 B(  1-O ,  2-N ) :   0.9961 B(  1-O ,  3-C ) :   0.1174
B(  2-N ,  3-C ) :   1.8150 B(  3-C ,  4-C ) :   0.9884 B(  3-C , 10-H ) :   0.9452
B(  4-C ,  5-C ) :   1.0572 B(  4-C ,  6-O ) :   2.1039 B(  5-C , 11-H ) :   0.9330
B(  5-C , 12-H ) :   0.9326 B(  5-C , 13-H ) :   0.9415

FINAL SINGLE POINT ENERGY      -361.076433881903

DIPOLE MOMENT
-------------
                                X             Y             Z
Electronic contribution:      5.35205      -0.33994      -0.84914
Nuclear contribution   :     -6.55556       1.05613       0.81076
                        -----------------------------------------
Total Dipole Moment    :     -1.20352       0.71619      -0.03837
                        -----------------------------------------
Magnitude (a.u.)       :      1.40102
Magnitude (Debye)      :      3.56111

                             ****ORCA TERMINATED NORMALLY****
TOTAL RUN TIME: 0 days 0 hours 0 minutes 6 seconds 148 msec
