                         Program Version 3.0.3 - RELEASE   -
|  1> ! RI PBE def2-SVP def2-SVP/J NBO PAL2
|  2> % maxcore 2000
|  3> % output
|  4>     # printlevel mini
|  5>     print[ P_Basis ] 0
|  6>     print[ P_SCFInfo ] 1
|  7>     print[ P_SCFIterInfo ] 1
|  8>     print[ P_OrbEn ] 0
|  9>     print[ P_Cartesian ] 0
| 10> end
| 11> *xyz 0 1
| 12>  C        3.3347080000     0.9857560000    -0.8787840000
| 13>  O        4.3028970000     0.0218510000    -0.5177460000
| 14>  N        3.7122260000    -0.9659860000     0.2266910000
| 15>  C        4.5459380000    -1.8449670000     0.6015150000
| 16>  C        4.0748390000    -3.0137810000     1.3980530000
| 17>  C        4.0602980000    -4.2722580000     0.5597560000
| 18>  O        4.6754980000    -5.2666620000     0.8195980000
| 19>  H        3.8673460000     1.7330290000    -1.4661530000
| 20>  H        2.8980320000     1.4540240000     0.0073020000
| 21>  H        2.5415570000     0.5369150000    -1.4826190000
| 22>  H        5.5995690000    -1.7677600000     0.3279180000
| 23>  H        3.0481710000    -2.8179030000     1.7242550000
| 24>  H        4.7111870000    -3.1862240000     2.2687380000
| 25>  H        3.4208360000    -4.2125340000    -0.3469140000
| 26> *
| 27>
| 28>                          ****END OF INPUT****
 Total Charge           Charge          ....    0
 Multiplicity           Mult            ....    1
 Number of Electrons    NEL             ....   54
 Basis Dimension        Dim             ....  133

MULLIKEN ATOMIC CHARGES
-----------------------
   0 C :    0.155588
   1 O :   -0.273903
   2 N :    0.002176
   3 C :   -0.083394
   4 C :    0.094428
   5 C :    0.069951
   6 O :   -0.149639
   7 H :    0.037945
   8 H :    0.023962
   9 H :    0.025710
  10 H :    0.019500
  11 H :    0.041764
  12 H :    0.035987
  13 H :   -0.000076
Sum of atomic charges:    0.0000000

LOEWDIN ATOMIC CHARGES
----------------------
   0 C :    0.044621
   1 O :   -0.082687
   2 N :    0.000105
   3 C :   -0.031707
   4 C :   -0.080188
   5 C :    0.092910
   6 O :   -0.096524
   7 H :    0.026160
   8 H :    0.013998
   9 H :    0.013784
  10 H :    0.010673
  11 H :    0.053493
  12 H :    0.043792
  13 H :   -0.008430

  Mayer bond orders larger than 0.1
B(  0-C ,  1-O ) :   0.9669 B(  0-C ,  7-H ) :   0.9743 B(  0-C ,  8-H ) :   0.9681
B(  0-C ,  9-H ) :   0.9684 B(  1-O ,  2-N ) :   0.9665 B(  1-O ,  3-C ) :   0.1143
B(  2-N ,  3-C ) :   1.8720 B(  3-C ,  4-C ) :   1.0239 B(  3-C , 10-H ) :   0.9428
B(  4-C ,  5-C ) :   0.9525 B(  4-C , 11-H ) :   0.8987 B(  4-C , 12-H ) :   0.9087
B(  5-C ,  6-O ) :   2.1804 B(  5-C , 13-H ) :   0.9162

FINAL SINGLE POINT ENERGY      -361.060827767604

DIPOLE MOMENT
-------------
                                X             Y             Z
Electronic contribution:      2.06683      -4.56157       0.81987
Nuclear contribution   :     -2.42754       5.46285      -0.93438
                        -----------------------------------------
Total Dipole Moment    :     -0.36070       0.90128      -0.11452
                        -----------------------------------------
Magnitude (a.u.)       :      0.97751
Magnitude (Debye)      :      2.48463

                             ****ORCA TERMINATED NORMALLY****
TOTAL RUN TIME: 0 days 0 hours 0 minutes 5 seconds 703 msec
