                         Program Version 3.0.3 - RELEASE   -
|  1> ! RI PBE def2-SVP def2-SVP/J NBO PAL2
|  2> % maxcore 2000
|  3> % output
|  4>     # printlevel mini
|  5>     print[ P_Basis ] 0
|  6>     print[ P_SCFInfo ] 1
|  7>     print[ P_SCFIterInfo ] 1
|  8>     print[ P_OrbEn ] 0
|  9>     print[ P_Cartesian ] 0
| 10> end
| 11> *xyz 0 1
| 12>  C        2.1968080000    -1.0960070000    -0.7487440000
| 13>  O        2.3912170000     0.1980000000    -0.1856840000
| 14>  N        2.8234220000     1.0835550000    -1.1404260000
| 15>  C        1.8790920000     1.8069780000    -1.8511060000
| 16>  C        0.5640850000     1.7163170000    -1.6910170000
| 17>  C        4.1714900000     1.3152330000    -1.1944680000
| 18>  O        4.6952120000     2.1158320000    -1.9267220000
| 19>  H        1.7877900000    -1.7038570000     0.0575920000
| 20>  H        3.1468240000    -1.5203050000    -1.0854300000
| 21>  H        1.4903990000    -1.0582330000    -1.5811730000
| 22>  H        2.3503710000     2.4704360000    -2.5659690000
| 23>  H        0.1159140000     1.0633950000    -0.9541900000
| 24>  H       -0.0866020000     2.3259030000    -2.3014040000
| 25>  H        4.7090800000     0.6699420000    -0.4794570000
| 26> *
| 27>
| 28>                          ****END OF INPUT****
 Total Charge           Charge          ....    0
 Multiplicity           Mult            ....    1
 Number of Electrons    NEL             ....   54
 Basis Dimension        Dim             ....  133

MULLIKEN ATOMIC CHARGES
-----------------------
   0 C :    0.127489
   1 O :   -0.264483
   2 N :   -0.050549
   3 C :    0.050736
   4 C :   -0.052342
   5 C :    0.174548
   6 O :   -0.208948
   7 H :    0.052432
   8 H :    0.031743
   9 H :    0.043773
  10 H :    0.027641
  11 H :    0.032962
  12 H :    0.036443
  13 H :   -0.001442
Sum of atomic charges:   -0.0000000

LOEWDIN ATOMIC CHARGES
----------------------
   0 C :    0.053234
   1 O :   -0.085258
   2 N :    0.078611
   3 C :    0.002894
   4 C :   -0.098832
   5 C :    0.050668
   6 O :   -0.157129
   7 H :    0.032775
   8 H :    0.013383
   9 H :    0.018329
  10 H :    0.038525
  11 H :    0.025707
  12 H :    0.034539
  13 H :   -0.007446

  Mayer bond orders larger than 0.1
B(  0-C ,  1-O ) :   0.9494 B(  0-C ,  7-H ) :   0.9736 B(  0-C ,  8-H ) :   0.9694
B(  0-C ,  9-H ) :   0.9666 B(  1-O ,  2-N ) :   0.9391 B(  2-N ,  3-C ) :   1.0584
B(  2-N ,  5-C ) :   1.0907 B(  3-C ,  4-C ) :   1.8971 B(  3-C , 10-H ) :   0.9478
B(  4-C , 11-H ) :   0.9390 B(  4-C , 12-H ) :   0.9420 B(  5-C ,  6-O ) :   2.0371
B(  5-C , 13-H ) :   0.9240

FINAL SINGLE POINT ENERGY      -361.067167615008

DIPOLE MOMENT
-------------
                                X             Y             Z
Electronic contribution:      4.29500       3.30313       0.42552
Nuclear contribution   :     -4.98820      -4.34330      -0.25777
                        -----------------------------------------
Total Dipole Moment    :     -0.69319      -1.04017       0.16775
                        -----------------------------------------
Magnitude (a.u.)       :      1.26119
Magnitude (Debye)      :      3.20570

                             ****ORCA TERMINATED NORMALLY****
TOTAL RUN TIME: 0 days 0 hours 0 minutes 6 seconds 624 msec
