                         Program Version 3.0.3 - RELEASE   -
|  1> ! RI PBE def2-SVP def2-SVP/J NBO PAL2
|  2> % maxcore 2000
|  3> % output
|  4>     # printlevel mini
|  5>     print[ P_Basis ] 0
|  6>     print[ P_SCFInfo ] 1
|  7>     print[ P_SCFIterInfo ] 1
|  8>     print[ P_OrbEn ] 0
|  9>     print[ P_Cartesian ] 0
| 10> end
| 11> *xyz 0 1
| 12>  C        2.0944350000     3.5473310000    -1.2765730000
| 13>  O        1.9961690000     2.8631870000    -2.5119890000
| 14>  N        3.1882340000     2.2224710000    -2.8102320000
| 15>  C        3.2340520000     0.8448830000    -2.3965890000
| 16>  C        3.8680760000     2.6673080000    -3.9163910000
| 17>  C        3.4466490000     4.0066000000    -4.4553630000
| 18>  O        4.7697400000     2.0120350000    -4.3968950000
| 19>  H        2.8653250000     4.3228270000    -1.3132410000
| 20>  H        2.3125520000     2.8584330000    -0.4547110000
| 21>  H        1.1183420000     4.0043500000    -1.1128440000
| 22>  H        3.2032370000     0.7735090000    -1.3076790000
| 23>  H        4.1711340000     0.4284730000    -2.7594990000
| 24>  H        2.3957170000     0.2820690000    -2.8190500000
| 25>  H        2.4344530000     3.9506660000    -4.8606450000
| 26>  H        4.1449680000     4.2814240000    -5.2423630000
| 27>  H        3.4416080000     4.7738450000    -3.6795270000
| 28> *
| 29>
| 30>                          ****END OF INPUT****
 Total Charge           Charge          ....    0
 Multiplicity           Mult            ....    1
 Number of Electrons    NEL             ....   56
 Basis Dimension        Dim             ....  143

MULLIKEN ATOMIC CHARGES
-----------------------
   0 C :    0.148056
   1 O :   -0.276517
   2 N :   -0.126934
   3 C :    0.098631
   4 C :    0.022372
   5 C :    0.021160
   6 O :   -0.214013
   7 H :    0.027963
   8 H :    0.021518
   9 H :    0.039238
  10 H :    0.030598
  11 H :    0.052866
  12 H :    0.036348
  13 H :    0.048980
  14 H :    0.038532
  15 H :    0.031201
Sum of atomic charges:    0.0000000

LOEWDIN ATOMIC CHARGES
----------------------
   0 C :    0.049011
   1 O :   -0.097005
   2 N :    0.035915
   3 C :    0.004834
   4 C :    0.019537
   5 C :   -0.089620
   6 O :   -0.183204
   7 H :    0.009363
   8 H :    0.010702
   9 H :    0.028113
  10 H :    0.022601
  11 H :    0.039652
  12 H :    0.023996
  13 H :    0.046807
  14 H :    0.041100
  15 H :    0.038197

  Mayer bond orders larger than 0.1
B(  0-C ,  1-O ) :   0.9700 B(  0-C ,  7-H ) :   0.9642 B(  0-C ,  8-H ) :   0.9645
B(  0-C ,  9-H ) :   0.9718 B(  1-O ,  2-N ) :   0.9280 B(  2-N ,  3-C ) :   0.9852
B(  2-N ,  4-C ) :   1.1111 B(  2-N ,  6-O ) :   0.1005 B(  3-C , 10-H ) :   0.9639
B(  3-C , 11-H ) :   0.9454 B(  3-C , 12-H ) :   0.9643 B(  4-C ,  5-C ) :   1.0491
B(  4-C ,  6-O ) :   2.0690 B(  5-C , 13-H ) :   0.9321 B(  5-C , 14-H ) :   0.9471
B(  5-C , 15-H ) :   0.9389

FINAL SINGLE POINT ENERGY      -362.290747505395

DIPOLE MOMENT
-------------
                                X             Y             Z
Electronic contribution:      1.85958      -1.73973      -2.96813
Nuclear contribution   :     -2.62774       2.14362       3.96016
                        -----------------------------------------
Total Dipole Moment    :     -0.76815       0.40389       0.99202
                        -----------------------------------------
Magnitude (a.u.)       :      1.31806
Magnitude (Debye)      :      3.35025

                             ****ORCA TERMINATED NORMALLY****
TOTAL RUN TIME: 0 days 0 hours 0 minutes 7 seconds 325 msec
