                         Program Version 3.0.3 - RELEASE   -
|  1> ! RI PBE def2-SVP def2-SVP/J NBO PAL2
|  2> % maxcore 2000
|  3> % output
|  4>     # printlevel mini
|  5>     print[ P_Basis ] 0
|  6>     print[ P_SCFInfo ] 1
|  7>     print[ P_SCFIterInfo ] 1
|  8>     print[ P_OrbEn ] 0
|  9>     print[ P_Cartesian ] 0
| 10> end
| 11> *xyz 0 1
| 12>  C        1.4001880000    -0.5169270000     0.2869590000
| 13>  O        2.1876240000     0.1573390000    -0.6716960000
| 14>  N        2.7666600000    -0.7707320000    -1.5466780000
| 15>  C        2.0840120000    -0.8125530000    -2.8158510000
| 16>  C        4.1416390000    -0.6756020000    -1.5319330000
| 17>  N        4.8620900000    -1.0029950000    -2.5150540000
| 18>  C        6.2875610000    -0.9754400000    -2.3299330000
| 19>  H        0.9565460000     0.2622270000     0.9081010000
| 20>  H        2.0103600000    -1.1812150000     0.9064270000
| 21>  H        0.6028450000    -1.0984450000    -0.1875200000
| 22>  H        1.0455020000    -1.1039880000    -2.6561260000
| 23>  H        2.5813120000    -1.5561790000    -3.4358280000
| 24>  H        2.1202320000     0.1557000000    -3.3275740000
| 25>  H        4.5235250000    -0.3297790000    -0.5638270000
| 26>  H        6.7006620000    -1.9806190000    -2.4604800000
| 27>  H        6.5981380000    -0.6027290000    -1.3421060000
| 28>  H        6.7463940000    -0.3444640000    -3.0965710000
| 29> *
| 30>
| 31>                          ****END OF INPUT****
 Total Charge           Charge          ....    0
 Multiplicity           Mult            ....    1
 Number of Electrons    NEL             ....   56
 Basis Dimension        Dim             ....  148

MULLIKEN ATOMIC CHARGES
-----------------------
   0 C :    0.156515
   1 O :   -0.287459
   2 N :   -0.133223
   3 C :    0.112491
   4 C :    0.096619
   5 N :   -0.221721
   6 C :    0.079674
   7 H :    0.034833
   8 H :    0.019836
   9 H :    0.015938
  10 H :    0.024366
  11 H :    0.047248
  12 H :    0.024314
  13 H :   -0.016690
  14 H :    0.025972
  15 H :   -0.008492
  16 H :    0.029775
Sum of atomic charges:   -0.0000000

LOEWDIN ATOMIC CHARGES
----------------------
   0 C :    0.045397
   1 O :   -0.105362
   2 N :    0.033983
   3 C :    0.003029
   4 C :    0.011027
   5 N :   -0.145389
   6 C :   -0.006235
   7 H :    0.025382
   8 H :    0.008767
   9 H :    0.007632
  10 H :    0.022905
  11 H :    0.037019
  12 H :    0.018398
  13 H :   -0.007651
  14 H :    0.024294
  15 H :    0.001661
  16 H :    0.025142

  Mayer bond orders larger than 0.1
B(  0-C ,  1-O ) :   0.9831 B(  0-C ,  7-H ) :   0.9705 B(  0-C ,  8-H ) :   0.9677
B(  0-C ,  9-H ) :   0.9635 B(  1-O ,  2-N ) :   0.9022 B(  2-N ,  3-C ) :   1.0021
B(  2-N ,  4-C ) :   1.1114 B(  3-C , 10-H ) :   0.9629 B(  3-C , 11-H ) :   0.9494
B(  3-C , 12-H ) :   0.9586 B(  4-C ,  5-N ) :   1.8332 B(  4-C , 13-H ) :   0.9282
B(  5-N ,  6-C ) :   1.0519 B(  6-C , 14-H ) :   0.9608 B(  6-C , 15-H ) :   0.9408
B(  6-C , 16-H ) :   0.9646

FINAL SINGLE POINT ENERGY      -342.412313634385

DIPOLE MOMENT
-------------
                                X             Y             Z
Electronic contribution:     -0.63919       1.13162       0.09806
Nuclear contribution   :      0.26052      -1.22983       0.37189
                        -----------------------------------------
Total Dipole Moment    :     -0.37867      -0.09821       0.46996
                        -----------------------------------------
Magnitude (a.u.)       :      0.61147
Magnitude (Debye)      :      1.55423

                             ****ORCA TERMINATED NORMALLY****
TOTAL RUN TIME: 0 days 0 hours 0 minutes 7 seconds 120 msec
