                         Program Version 3.0.3 - RELEASE   -
|  1> ! RI PBE def2-SVP def2-SVP/J NBO PAL2
|  2> % maxcore 2000
|  3> % output
|  4>     # printlevel mini
|  5>     print[ P_Basis ] 0
|  6>     print[ P_SCFInfo ] 1
|  7>     print[ P_SCFIterInfo ] 1
|  8>     print[ P_OrbEn ] 0
|  9>     print[ P_Cartesian ] 0
| 10> end
| 11> *xyz 0 1
| 12>  C        1.6753910000     1.4277090000     0.0570600000
| 13>  O        2.9875040000     0.9703730000    -0.1665080000
| 14>  N        3.4520480000     0.3810890000     1.0024810000
| 15>  C        4.6398700000    -0.0614780000     0.8853360000
| 16>  C        5.5253490000    -0.0129490000    -0.3064170000
| 17>  O        5.2192310000    -0.6578320000     1.9391110000
| 18>  C        4.4483840000    -0.7508170000     3.1250890000
| 19>  H        1.3537770000     1.8794430000    -0.8818640000
| 20>  H        1.6478340000     2.1762490000     0.8552720000
| 21>  H        1.0069600000     0.6007020000     0.3167830000
| 22>  H        5.0239450000     0.4755350000    -1.1370660000
| 23>  H        5.8096750000    -1.0279310000    -0.5926590000
| 24>  H        6.4418790000     0.5274330000    -0.0595870000
| 25>  H        5.0827930000    -1.2570260000     3.8504970000
| 26>  H        3.5343560000    -1.3232650000     2.9510990000
| 27>  H        4.1701930000     0.2416530000     3.4870720000
| 28> *
| 29>
| 30>                          ****END OF INPUT****
 Total Charge           Charge          ....    0
 Multiplicity           Mult            ....    1
 Number of Electrons    NEL             ....   56
 Basis Dimension        Dim             ....  143

MULLIKEN ATOMIC CHARGES
-----------------------
   0 C :    0.167325
   1 O :   -0.288620
   2 N :   -0.068094
   3 C :   -0.026920
   4 C :    0.073713
   5 O :   -0.270860
   6 C :    0.153438
   7 H :    0.025354
   8 H :    0.015181
   9 H :    0.013583
  10 H :    0.039823
  11 H :    0.039500
  12 H :    0.042593
  13 H :    0.034132
  14 H :    0.026026
  15 H :    0.023827
Sum of atomic charges:   -0.0000000

LOEWDIN ATOMIC CHARGES
----------------------
   0 C :    0.040644
   1 O :   -0.099904
   2 N :   -0.075307
   3 C :   -0.007641
   4 C :   -0.075358
   5 O :   -0.067095
   6 C :    0.060305
   7 H :    0.021117
   8 H :    0.007981
   9 H :    0.007826
  10 H :    0.038356
  11 H :    0.045684
  12 H :    0.046244
  13 H :    0.022584
  14 H :    0.017403
  15 H :    0.017162

  Mayer bond orders larger than 0.1
B(  0-C ,  1-O ) :   0.9822 B(  0-C ,  7-H ) :   0.9727 B(  0-C ,  8-H ) :   0.9654
B(  0-C ,  9-H ) :   0.9649 B(  1-O ,  2-N ) :   0.9292 B(  2-N ,  3-C ) :   1.7408
B(  3-C ,  4-C ) :   1.0867 B(  3-C ,  5-O ) :   1.1701 B(  4-C , 10-H ) :   0.9352
B(  4-C , 11-H ) :   0.9384 B(  4-C , 12-H ) :   0.9394 B(  5-O ,  6-C ) :   0.9646
B(  6-C , 13-H ) :   0.9722 B(  6-C , 14-H ) :   0.9648 B(  6-C , 15-H ) :   0.9639

FINAL SINGLE POINT ENERGY      -362.269090091886

DIPOLE MOMENT
-------------
                                X             Y             Z
Electronic contribution:      1.51706      -0.53516      -0.23960
Nuclear contribution   :     -1.57577       0.52276       0.34888
                        -----------------------------------------
Total Dipole Moment    :     -0.05871      -0.01240       0.10928
                        -----------------------------------------
Magnitude (a.u.)       :      0.12467
Magnitude (Debye)      :      0.31689

                             ****ORCA TERMINATED NORMALLY****
TOTAL RUN TIME: 0 days 0 hours 0 minutes 6 seconds 602 msec
