                         Program Version 3.0.3 - RELEASE   -
|  1> ! RI PBE def2-SVP def2-SVP/J NBO PAL2
|  2> % maxcore 2000
|  3> % output
|  4>     # printlevel mini
|  5>     print[ P_Basis ] 0
|  6>     print[ P_SCFInfo ] 1
|  7>     print[ P_SCFIterInfo ] 1
|  8>     print[ P_OrbEn ] 0
|  9>     print[ P_Cartesian ] 0
| 10> end
| 11> *xyz 0 1
| 12>  C        3.2378400000    -0.7866890000    -0.5975450000
| 13>  O        4.2725050000     0.1663420000    -0.6583220000
| 14>  N        4.0813400000     1.1029080000     0.3438530000
| 15>  C        4.9964600000     1.9827490000     0.3249780000
| 16>  N        4.9628380000     3.0819610000     1.1653610000
| 17>  C        4.3946680000     2.9574270000     2.4843070000
| 18>  C        5.8576870000     3.1352880000     2.3090250000
| 19>  H        3.4334010000    -1.4899620000    -1.4073790000
| 20>  H        2.2600410000    -0.3179840000    -0.7438560000
| 21>  H        3.2435370000    -1.3174850000     0.3597170000
| 22>  H        5.8169870000     1.9531320000    -0.3917760000
| 23>  H        4.0360270000     1.9757500000     2.7740270000
| 24>  H        3.7868440000     3.7948410000     2.8069700000
| 25>  H        6.4855540000     2.2689710000     2.4951030000
| 26>  H        6.3189610000     4.0985610000     2.4948260000
| 27> *
| 28>
| 29>                          ****END OF INPUT****
 Total Charge           Charge          ....    0
 Multiplicity           Mult            ....    1
 Number of Electrons    NEL             ....   54
 Basis Dimension        Dim             ....  138

MULLIKEN ATOMIC CHARGES
-----------------------
   0 C :    0.162325
   1 O :   -0.287561
   2 N :   -0.034350
   3 C :    0.059697
   4 N :   -0.225904
   5 C :    0.036579
   6 C :    0.037142
   7 H :    0.030734
   8 H :    0.016698
   9 H :    0.014225
  10 H :    0.010822
  11 H :    0.044513
  12 H :    0.045575
  13 H :    0.044311
  14 H :    0.045194
Sum of atomic charges:   -0.0000000

LOEWDIN ATOMIC CHARGES
----------------------
   0 C :    0.040482
   1 O :   -0.096870
   2 N :   -0.045301
   3 C :   -0.015904
   4 N :   -0.065602
   5 C :    0.022019
   6 C :    0.023899
   7 H :    0.022961
   8 H :    0.009691
   9 H :    0.007841
  10 H :    0.004481
  11 H :    0.019924
  12 H :    0.027329
  13 H :    0.021094
  14 H :    0.023954

  Mayer bond orders larger than 0.1
B(  0-C ,  1-O ) :   0.9818 B(  0-C ,  7-H ) :   0.9739 B(  0-C ,  8-H ) :   0.9657
B(  0-C ,  9-H ) :   0.9657 B(  1-O ,  2-N ) :   0.9340 B(  2-N ,  3-C ) :   1.8003
B(  3-C ,  4-N ) :   1.1274 B(  3-C , 10-H ) :   0.9419 B(  4-N ,  5-C ) :   0.9570
B(  4-N ,  6-C ) :   0.9363 B(  5-C ,  6-C ) :   1.0829 B(  5-C , 11-H ) :   0.9366
B(  5-C , 12-H ) :   0.9490 B(  6-C , 13-H ) :   0.9397 B(  6-C , 14-H ) :   0.9510

FINAL SINGLE POINT ENERGY      -341.187443735736

DIPOLE MOMENT
-------------
                                X             Y             Z
Electronic contribution:      0.97512       1.61203      -1.88026
Nuclear contribution   :     -0.74906      -1.71280       2.34938
                        -----------------------------------------
Total Dipole Moment    :      0.22605      -0.10077       0.46912
                        -----------------------------------------
Magnitude (a.u.)       :      0.53041
Magnitude (Debye)      :      1.34818

                             ****ORCA TERMINATED NORMALLY****
TOTAL RUN TIME: 0 days 0 hours 0 minutes 7 seconds 130 msec
