                         Program Version 3.0.3 - RELEASE   -
|  1> ! RI PBE def2-SVP def2-SVP/J NBO PAL2
|  2> % maxcore 2000
|  3> % output
|  4>     # printlevel mini
|  5>     print[ P_Basis ] 0
|  6>     print[ P_SCFInfo ] 1
|  7>     print[ P_SCFIterInfo ] 1
|  8>     print[ P_OrbEn ] 0
|  9>     print[ P_Cartesian ] 0
| 10> end
| 11> *xyz 0 1
| 12>  C        1.4321280000     0.6991510000     0.5024710000
| 13>  O        2.7910570000     0.3894600000     0.3444710000
| 14>  N        3.1439700000     0.6156910000    -0.9915740000
| 15>  C        4.3809570000     0.3386590000    -1.1620840000
| 16>  N        4.9817830000     0.4705700000    -2.3669470000
| 17>  C        4.2027130000     0.9355460000    -3.4838680000
| 18>  C        6.3700510000     0.1562340000    -2.5505940000
| 19>  H        1.2000930000     0.5106050000     1.5516910000
| 20>  H        0.8021150000     0.0660870000    -0.1321570000
| 21>  H        1.2321710000     1.7500040000     0.2655290000
| 22>  H        5.0046920000    -0.0162200000    -0.3418820000
| 23>  H        3.3604380000     0.2645570000    -3.6817030000
| 24>  H        4.8379840000     0.9830880000    -4.3681550000
| 25>  H        3.7866970000     1.9287810000    -3.2859760000
| 26>  H        6.7973820000    -0.1775930000    -1.6046320000
| 27>  H        6.9407290000     1.0292860000    -2.8885200000
| 28>  H        6.5091400000    -0.6461070000    -3.2847830000
| 29> *
| 30>
| 31>                          ****END OF INPUT****
 Total Charge           Charge          ....    0
 Multiplicity           Mult            ....    1
 Number of Electrons    NEL             ....   56
 Basis Dimension        Dim             ....  148

MULLIKEN ATOMIC CHARGES
-----------------------
   0 C :    0.175586
   1 O :   -0.298814
   2 N :   -0.098700
   3 C :    0.093678
   4 N :   -0.275678
   5 C :    0.112876
   6 C :    0.091273
   7 H :    0.019524
   8 H :    0.005011
   9 H :    0.003539
  10 H :   -0.003626
  11 H :    0.031616
  12 H :    0.019207
  13 H :    0.028839
  14 H :    0.031139
  15 H :    0.032602
  16 H :    0.031929
Sum of atomic charges:    0.0000000

LOEWDIN ATOMIC CHARGES
----------------------
   0 C :    0.037168
   1 O :   -0.111526
   2 N :   -0.090807
   3 C :   -0.014751
   4 N :   -0.033143
   5 C :    0.016737
   6 C :    0.019109
   7 H :    0.018803
   8 H :    0.003821
   9 H :    0.003277
  10 H :    0.001865
  11 H :    0.026185
  12 H :    0.024930
  13 H :    0.026355
  14 H :    0.030634
  15 H :    0.020839
  16 H :    0.020506

  Mayer bond orders larger than 0.1
B(  0-C ,  1-O ) :   1.0001 B(  0-C ,  7-H ) :   0.9727 B(  0-C ,  8-H ) :   0.9622
B(  0-C ,  9-H ) :   0.9617 B(  1-O ,  2-N ) :   0.9128 B(  2-N ,  3-C ) :   1.7149
B(  3-C ,  4-N ) :   1.1920 B(  3-C , 10-H ) :   0.9328 B(  4-N ,  5-C ) :   1.0140
B(  4-N ,  6-C ) :   1.0269 B(  5-C , 11-H ) :   0.9583 B(  5-C , 12-H ) :   0.9638
B(  5-C , 13-H ) :   0.9566 B(  6-C , 14-H ) :   0.9621 B(  6-C , 15-H ) :   0.9611
B(  6-C , 16-H ) :   0.9612

FINAL SINGLE POINT ENERGY      -342.419338661199

DIPOLE MOMENT
-------------
                                X             Y             Z
Electronic contribution:     -0.88085      -0.54325       3.25914
Nuclear contribution   :      1.57376       0.49246      -3.80442
                        -----------------------------------------
Total Dipole Moment    :      0.69291      -0.05079      -0.54528
                        -----------------------------------------
Magnitude (a.u.)       :      0.88320
Magnitude (Debye)      :      2.24491

                             ****ORCA TERMINATED NORMALLY****
TOTAL RUN TIME: 0 days 0 hours 0 minutes 7 seconds 429 msec
