                         Program Version 3.0.3 - RELEASE   -
|  1> ! RI PBE def2-SVP def2-SVP/J NBO PAL2
|  2> % maxcore 2000
|  3> % output
|  4>     # printlevel mini
|  5>     print[ P_Basis ] 0
|  6>     print[ P_SCFInfo ] 1
|  7>     print[ P_SCFIterInfo ] 1
|  8>     print[ P_OrbEn ] 0
|  9>     print[ P_Cartesian ] 0
| 10> end
| 11> *xyz 0 1
| 12>  C        5.3403600000    -0.8045430000     1.1531340000
| 13>  O        6.0084160000    -1.2422970000    -0.0049160000
| 14>  N        5.1341920000    -1.1646920000    -1.0822910000
| 15>  C        5.7075040000    -1.5541380000    -2.1490390000
| 16>  N        5.0404140000    -1.5656250000    -3.3388910000
| 17>  C        5.5898560000    -1.9716820000    -4.5321380000
| 18>  C        4.9664460000    -1.9946720000    -5.7088570000
| 19>  H        6.0657500000    -0.8851080000     1.9631620000
| 20>  H        4.4723470000    -1.4345800000     1.3718760000
| 21>  H        5.0139160000     0.2354830000     1.0530030000
| 22>  H        6.7424380000    -1.8933120000    -2.1688920000
| 23>  H        4.0822670000    -1.2520700000    -3.3222070000
| 24>  H        6.6240520000    -2.2903260000    -4.4467010000
| 25>  H        3.9347680000    -1.6823240000    -5.8230360000
| 26>  H        5.4915840000    -2.3331240000    -6.5897080000
| 27> *
| 28>
| 29>                          ****END OF INPUT****
 Total Charge           Charge          ....    0
 Multiplicity           Mult            ....    1
 Number of Electrons    NEL             ....   54
 Basis Dimension        Dim             ....  138

MULLIKEN ATOMIC CHARGES
-----------------------
   0 C :    0.165054
   1 O :   -0.293668
   2 N :   -0.053831
   3 C :    0.059865
   4 N :   -0.050165
   5 C :    0.029565
   6 C :   -0.083938
   7 H :    0.029844
   8 H :    0.013129
   9 H :    0.013236
  10 H :    0.004014
  11 H :    0.117499
  12 H :    0.012388
  13 H :    0.011127
  14 H :    0.025882
Sum of atomic charges:   -0.0000000

LOEWDIN ATOMIC CHARGES
----------------------
   0 C :    0.040194
   1 O :   -0.100903
   2 N :   -0.068312
   3 C :   -0.005207
   4 N :    0.054645
   5 C :    0.006006
   6 C :   -0.138010
   7 H :    0.022631
   8 H :    0.007733
   9 H :    0.008070
  10 H :    0.007069
  11 H :    0.085963
  12 H :    0.029401
  13 H :    0.020656
  14 H :    0.030061

  Mayer bond orders larger than 0.1
B(  0-C ,  1-O ) :   0.9878 B(  0-C ,  7-H ) :   0.9734 B(  0-C ,  8-H ) :   0.9646
B(  0-C ,  9-H ) :   0.9642 B(  1-O ,  2-N ) :   0.9329 B(  2-N ,  3-C ) :   1.7691
B(  3-C ,  4-N ) :   1.1562 B(  3-C , 10-H ) :   0.9348 B(  4-N ,  5-C ) :   1.1598
B(  4-N , 11-H ) :   0.9215 B(  5-C ,  6-C ) :   1.8757 B(  5-C , 12-H ) :   0.9495
B(  6-C , 13-H ) :   0.9524 B(  6-C , 14-H ) :   0.9408

FINAL SINGLE POINT ENERGY      -341.216502497400

DIPOLE MOMENT
-------------
                                X             Y             Z
Electronic contribution:      0.71047      -0.11033       0.62971
Nuclear contribution   :     -0.73798       0.10536      -0.69795
                        -----------------------------------------
Total Dipole Moment    :     -0.02751      -0.00497      -0.06824
                        -----------------------------------------
Magnitude (a.u.)       :      0.07375
Magnitude (Debye)      :      0.18745

                             ****ORCA TERMINATED NORMALLY****
TOTAL RUN TIME: 0 days 0 hours 0 minutes 6 seconds 545 msec
