                         Program Version 3.0.3 - RELEASE   -
|  1> ! RI PBE def2-SVP def2-SVP/J NBO PAL2
|  2> % maxcore 2000
|  3> % output
|  4>     # printlevel mini
|  5>     print[ P_Basis ] 0
|  6>     print[ P_SCFInfo ] 1
|  7>     print[ P_SCFIterInfo ] 1
|  8>     print[ P_OrbEn ] 0
|  9>     print[ P_Cartesian ] 0
| 10> end
| 11> *xyz 0 1
| 12>  C        1.6958040000     0.0719580000     0.0906680000
| 13>  O        2.6656300000     0.9734400000    -0.4108170000
| 14>  N        3.2897640000     1.6243270000     0.6466820000
| 15>  C        4.6628730000     1.3629660000     0.7316410000
| 16>  N        5.2877660000     0.4539030000     0.1031510000
| 17>  C        5.3883190000     2.2114600000     1.6898280000
| 18>  C        4.8365520000     2.9795180000     2.6230520000
| 19>  H        1.2690490000    -0.4177530000    -0.7853160000
| 20>  H        0.9091140000     0.6020420000     0.6355970000
| 21>  H        2.1524420000    -0.6743840000     0.7466580000
| 22>  H        3.0784210000     2.6135880000     0.5833110000
| 23>  H        4.6523590000    -0.0243080000    -0.5351920000
| 24>  H        6.4655180000     2.1440050000     1.5854670000
| 25>  H        3.7642010000     3.0263190000     2.7770930000
| 26>  H        5.4518790000     3.5717190000     3.2895670000
| 27> *
| 28>
| 29>                          ****END OF INPUT****
 Total Charge           Charge          ....    0
 Multiplicity           Mult            ....    1
 Number of Electrons    NEL             ....   54
 Basis Dimension        Dim             ....  138

MULLIKEN ATOMIC CHARGES
-----------------------
   0 C :    0.154672
   1 O :   -0.305704
   2 N :   -0.009219
   3 C :   -0.128048
   4 N :   -0.070211
   5 C :    0.019358
   6 C :   -0.033561
   7 H :    0.035746
   8 H :    0.019336
   9 H :    0.030660
  10 H :    0.132125
  11 H :    0.085746
  12 H :    0.008865
  13 H :    0.024269
  14 H :    0.035967
Sum of atomic charges:    0.0000000

LOEWDIN ATOMIC CHARGES
----------------------
   0 C :    0.047102
   1 O :   -0.110386
   2 N :    0.046438
   3 C :   -0.023629
   4 N :   -0.129665
   5 C :   -0.029540
   6 C :   -0.046658
   7 H :    0.025907
   8 H :    0.009559
   9 H :    0.013276
  10 H :    0.064629
  11 H :    0.038795
  12 H :    0.041700
  13 H :    0.021342
  14 H :    0.031132

  Mayer bond orders larger than 0.1
B(  0-C ,  1-O ) :   0.9646 B(  0-C ,  7-H ) :   0.9710 B(  0-C ,  8-H ) :   0.9696
B(  0-C ,  9-H ) :   0.9701 B(  1-O ,  2-N ) :   0.9535 B(  2-N ,  3-C ) :   1.0780
B(  2-N , 10-H ) :   0.9101 B(  3-C ,  4-N ) :   2.0214 B(  3-C ,  5-C ) :   1.0426
B(  4-N , 11-H ) :   0.9189 B(  5-C ,  6-C ) :   1.9216 B(  5-C , 12-H ) :   0.9470
B(  6-C , 13-H ) :   0.9402 B(  6-C , 14-H ) :   0.9396

FINAL SINGLE POINT ENERGY      -341.204390120208

DIPOLE MOMENT
-------------
                                X             Y             Z
Electronic contribution:      2.17482       0.38541      -1.96450
Nuclear contribution   :     -3.21747       0.02727       2.21798
                        -----------------------------------------
Total Dipole Moment    :     -1.04264       0.41267       0.25348
                        -----------------------------------------
Magnitude (a.u.)       :      1.14963
Magnitude (Debye)      :      2.92213

                             ****ORCA TERMINATED NORMALLY****
TOTAL RUN TIME: 0 days 0 hours 0 minutes 6 seconds 473 msec
