                         Program Version 3.0.3 - RELEASE   -
|  1> ! RI PBE def2-SVP def2-SVP/J NBO PAL2
|  2> % maxcore 2000
|  3> % output
|  4>     # printlevel mini
|  5>     print[ P_Basis ] 0
|  6>     print[ P_SCFInfo ] 1
|  7>     print[ P_SCFIterInfo ] 1
|  8>     print[ P_OrbEn ] 0
|  9>     print[ P_Cartesian ] 0
| 10> end
| 11> *xyz 0 1
| 12>  C        2.2674080000    -0.1851170000    -1.0619610000
| 13>  O        2.6897700000     0.2091090000     0.2327890000
| 14>  N        3.1419810000    -0.8969540000     0.9347450000
| 15>  C        4.4778990000    -0.7943030000     1.3364560000
| 16>  N        5.3509490000     0.0082000000     0.8906270000
| 17>  C        4.8082700000    -1.7895730000     2.3217950000
| 18>  C        5.0417060000    -2.6200140000     3.1557690000
| 19>  H        1.9612390000     0.7340780000    -1.5620900000
| 20>  H        1.4192080000    -0.8735510000    -1.0065090000
| 21>  H        3.0834510000    -0.6566390000    -1.6157010000
| 22>  H        2.5033120000    -1.1082250000     1.6935230000
| 23>  H        4.9114080000     0.6536810000     0.2342240000
| 24>  H        5.2741090000    -3.3513600000     3.8940420000
| 25> *
| 26>
| 27>                          ****END OF INPUT****
 Total Charge           Charge          ....    0
 Multiplicity           Mult            ....    1
 Number of Electrons    NEL             ....   52
 Basis Dimension        Dim             ....  128

MULLIKEN ATOMIC CHARGES
-----------------------
   0 C :    0.146609
   1 O :   -0.301987
   2 N :    0.001883
   3 C :   -0.117156
   4 N :   -0.064628
   5 C :    0.417406
   6 C :   -0.420129
   7 H :    0.041140
   8 H :    0.023934
   9 H :    0.034702
  10 H :    0.132724
  11 H :    0.090689
  12 H :    0.014812
Sum of atomic charges:   -0.0000000

LOEWDIN ATOMIC CHARGES
----------------------
   0 C :    0.047635
   1 O :   -0.108895
   2 N :    0.056625
   3 C :   -0.033228
   4 N :   -0.115211
   5 C :   -0.017838
   6 C :   -0.034854
   7 H :    0.027394
   8 H :    0.011441
   9 H :    0.015110
  10 H :    0.068786
  11 H :    0.042549
  12 H :    0.040485

  Mayer bond orders larger than 0.1
B(  0-C ,  1-O ) :   0.9604 B(  0-C ,  7-H ) :   0.9714 B(  0-C ,  8-H ) :   0.9700
B(  0-C ,  9-H ) :   0.9702 B(  1-O ,  2-N ) :   0.9537 B(  2-N ,  3-C ) :   1.0697
B(  2-N ,  4-N ) :   0.1071 B(  2-N , 10-H ) :   0.9170 B(  3-C ,  4-N ) :   2.0325
B(  3-C ,  5-C ) :   0.9172 B(  4-N , 11-H ) :   0.9105 B(  5-C ,  6-C ) :   2.3509
B(  6-C , 12-H ) :   1.0888

FINAL SINGLE POINT ENERGY      -339.954207151433

DIPOLE MOMENT
-------------
                                X             Y             Z
Electronic contribution:      2.69939      -0.61061       4.03009
Nuclear contribution   :     -3.88444       0.20375      -4.21613
                        -----------------------------------------
Total Dipole Moment    :     -1.18505      -0.40687      -0.18604
                        -----------------------------------------
Magnitude (a.u.)       :      1.26669
Magnitude (Debye)      :      3.21966

                             ****ORCA TERMINATED NORMALLY****
TOTAL RUN TIME: 0 days 0 hours 0 minutes 6 seconds 278 msec
