                         Program Version 3.0.3 - RELEASE   -
|  1> ! RI PBE def2-SVP def2-SVP/J NBO PAL2
|  2> % maxcore 2000
|  3> % output
|  4>     # printlevel mini
|  5>     print[ P_Basis ] 0
|  6>     print[ P_SCFInfo ] 1
|  7>     print[ P_SCFIterInfo ] 1
|  8>     print[ P_OrbEn ] 0
|  9>     print[ P_Cartesian ] 0
| 10> end
| 11> *xyz 0 1
| 12>  C        2.5753320000     1.2067740000     0.5901290000
| 13>  O        3.6868670000     0.4701490000     0.1336600000
| 14>  N        3.2542870000    -0.4725340000    -0.7832140000
| 15>  C        4.2259000000    -1.1554060000    -1.2159330000
| 16>  O        4.0911290000    -2.1410170000    -2.1176640000
| 17>  C        2.8455540000    -2.4359350000    -2.6073480000
| 18>  C        2.6951120000    -3.4048660000    -3.4932050000
| 19>  H        2.9734580000     1.9282790000     1.3036480000
| 20>  H        1.8491550000     0.5573070000     1.0879910000
| 21>  H        2.0860950000     1.7341350000    -0.2342160000
| 22>  H        5.2579890000    -1.0164120000    -0.9059570000
| 23>  H        2.0406070000    -1.8275660000    -2.2163680000
| 24>  H        3.5366740000    -3.9842440000    -3.8515250000
| 25>  H        1.7082400000    -3.6282650000    -3.8726880000
| 26> *
| 27>
| 28>                          ****END OF INPUT****
 Total Charge           Charge          ....    0
 Multiplicity           Mult            ....    1
 Number of Electrons    NEL             ....   54
 Basis Dimension        Dim             ....  133

MULLIKEN ATOMIC CHARGES
-----------------------
   0 C :    0.161126
   1 O :   -0.285668
   2 N :   -0.062325
   3 C :    0.162739
   4 O :   -0.202160
   5 C :    0.079624
   6 C :   -0.047106
   7 H :    0.033532
   8 H :    0.020457
   9 H :    0.019176
  10 H :    0.018839
  11 H :    0.031185
  12 H :    0.035401
  13 H :    0.035179
Sum of atomic charges:   -0.0000000

LOEWDIN ATOMIC CHARGES
----------------------
   0 C :    0.043047
   1 O :   -0.091770
   2 N :   -0.058532
   3 C :    0.024964
   4 O :   -0.013201
   5 C :    0.045822
   6 C :   -0.091496
   7 H :    0.024672
   8 H :    0.010664
   9 H :    0.010631
  10 H :    0.008292
  11 H :    0.019171
  12 H :    0.031860
  13 H :    0.035876

  Mayer bond orders larger than 0.1
B(  0-C ,  1-O ) :   0.9764 B(  0-C ,  7-H ) :   0.9730 B(  0-C ,  8-H ) :   0.9671
B(  0-C ,  9-H ) :   0.9667 B(  1-O ,  2-N ) :   0.9393 B(  1-O ,  3-C ) :   0.1012
B(  2-N ,  3-C ) :   1.7665 B(  3-C ,  4-O ) :   1.1288 B(  3-C , 10-H ) :   0.9516
B(  4-O ,  5-C ) :   1.0393 B(  5-C ,  6-C ) :   1.9398 B(  5-C , 11-H ) :   0.9504
B(  6-C , 12-H ) :   0.9463 B(  6-C , 13-H ) :   0.9416

FINAL SINGLE POINT ENERGY      -361.040182178592

DIPOLE MOMENT
-------------
                                X             Y             Z
Electronic contribution:      3.47386      -1.08212      -0.33980
Nuclear contribution   :     -3.68085       1.25077       0.45131
                        -----------------------------------------
Total Dipole Moment    :     -0.20699       0.16866       0.11151
                        -----------------------------------------
Magnitude (a.u.)       :      0.28935
Magnitude (Debye)      :      0.73548

                             ****ORCA TERMINATED NORMALLY****
TOTAL RUN TIME: 0 days 0 hours 0 minutes 6 seconds 69 msec
