                         Program Version 3.0.3 - RELEASE   -
|  1> ! RI PBE def2-SVP def2-SVP/J NBO PAL2
|  2> % maxcore 2000
|  3> % output
|  4>     # printlevel mini
|  5>     print[ P_Basis ] 0
|  6>     print[ P_SCFInfo ] 1
|  7>     print[ P_SCFIterInfo ] 1
|  8>     print[ P_OrbEn ] 0
|  9>     print[ P_Cartesian ] 0
| 10> end
| 11> *xyz 0 1
| 12>  C        2.8779070000    -3.3687290000    -2.3116220000
| 13>  O        3.1325490000    -1.9800340000    -2.4381180000
| 14>  N        3.5642710000    -1.4633580000    -1.2326520000
| 15>  C        4.8037320000    -0.8753700000    -1.1405200000
| 16>  O        5.0346990000    -0.1214340000    -0.2179540000
| 17>  C        5.7996100000    -1.2691830000    -2.1656960000
| 18>  C        7.0291780000    -0.7751760000    -2.1097420000
| 19>  H        2.5373460000    -3.6963720000    -3.2941000000
| 20>  H        2.0961860000    -3.5600470000    -1.5701460000
| 21>  H        3.7850740000    -3.9112150000    -2.0299780000
| 22>  H        2.8292940000    -0.9929690000    -0.7188260000
| 23>  H        5.4904940000    -1.9467950000    -2.9512570000
| 24>  H        7.3019260000    -0.0883060000    -1.3158930000
| 25>  H        7.7805330000    -1.0395020000    -2.8440030000
| 26> *
| 27>
| 28>                          ****END OF INPUT****
 Total Charge           Charge          ....    0
 Multiplicity           Mult            ....    1
 Number of Electrons    NEL             ....   54
 Basis Dimension        Dim             ....  133

MULLIKEN ATOMIC CHARGES
-----------------------
   0 C :    0.151996
   1 O :   -0.288952
   2 N :    0.008937
   3 C :    0.088288
   4 O :   -0.195696
   5 C :   -0.088794
   6 C :    0.021352
   7 H :    0.040568
   8 H :    0.023551
   9 H :    0.026840
  10 H :    0.127697
  11 H :    0.004877
  12 H :    0.046819
  13 H :    0.032517
Sum of atomic charges:   -0.0000000

LOEWDIN ATOMIC CHARGES
----------------------
   0 C :    0.047520
   1 O :   -0.104728
   2 N :    0.077158
   3 C :    0.014484
   4 O :   -0.177677
   5 C :   -0.074624
   6 C :    0.010731
   7 H :    0.027571
   8 H :    0.011516
   9 H :    0.011413
  10 H :    0.066534
  11 H :    0.025816
  12 H :    0.034066
  13 H :    0.030219

  Mayer bond orders larger than 0.1
B(  0-C ,  1-O ) :   0.9605 B(  0-C ,  7-H ) :   0.9718 B(  0-C ,  8-H ) :   0.9702
B(  0-C ,  9-H ) :   0.9662 B(  1-O ,  2-N ) :   0.9431 B(  2-N ,  3-C ) :   1.1302
B(  2-N ,  4-O ) :   0.1056 B(  2-N , 10-H ) :   0.9126 B(  3-C ,  4-O ) :   2.0902
B(  3-C ,  5-C ) :   0.9742 B(  5-C ,  6-C ) :   1.9665 B(  5-C , 11-H ) :   0.9372
B(  6-C , 12-H ) :   0.9342 B(  6-C , 13-H ) :   0.9397

FINAL SINGLE POINT ENERGY      -361.069110030630

DIPOLE MOMENT
-------------
                                X             Y             Z
Electronic contribution:     -0.49413       3.91009       2.30823
Nuclear contribution   :      0.01932      -4.86330      -2.92729
                        -----------------------------------------
Total Dipole Moment    :     -0.47480      -0.95321      -0.61905
                        -----------------------------------------
Magnitude (a.u.)       :      1.23178
Magnitude (Debye)      :      3.13092

                             ****ORCA TERMINATED NORMALLY****
TOTAL RUN TIME: 0 days 0 hours 0 minutes 6 seconds 264 msec
