                         Program Version 3.0.3 - RELEASE   -
|  1> ! RI PBE def2-SVP def2-SVP/J NBO PAL2
|  2> % maxcore 2000
|  3> % output
|  4>     # printlevel mini
|  5>     print[ P_Basis ] 0
|  6>     print[ P_SCFInfo ] 1
|  7>     print[ P_SCFIterInfo ] 1
|  8>     print[ P_OrbEn ] 0
|  9>     print[ P_Cartesian ] 0
| 10> end
| 11> *xyz 0 1
| 12>  C        2.0493040000     0.0868940000    -1.0737250000
| 13>  O        2.2617890000     0.3134660000     0.3113650000
| 14>  N        3.2752120000     1.2242660000     0.5005270000
| 15>  C        4.4459570000     0.8134700000     1.0783560000
| 16>  O        5.2212020000     1.6002510000     1.5725960000
| 17>  C        4.7104040000    -0.6106840000     0.9939110000
| 18>  C        5.0054520000    -1.7731540000     0.9628910000
| 19>  H        1.2278730000    -0.6272750000    -1.1277530000
| 20>  H        2.9414680000    -0.3374550000    -1.5409730000
| 21>  H        1.7681620000     1.0128780000    -1.5840350000
| 22>  H        2.9487030000     2.1420300000     0.7757930000
| 23>  H        5.2712760000    -2.8043980000     0.9406580000
| 24> *
| 25>
| 26>                          ****END OF INPUT****
 Total Charge           Charge          ....    0
 Multiplicity           Mult            ....    1
 Number of Electrons    NEL             ....   52
 Basis Dimension        Dim             ....  123

MULLIKEN ATOMIC CHARGES
-----------------------
   0 C :    0.146453
   1 O :   -0.278413
   2 N :    0.014295
   3 C :    0.107510
   4 O :   -0.171088
   5 C :    0.327716
   6 C :   -0.399981
   7 H :    0.045380
   8 H :    0.033693
   9 H :    0.022870
  10 H :    0.134069
  11 H :    0.017494
Sum of atomic charges:   -0.0000000

LOEWDIN ATOMIC CHARGES
----------------------
   0 C :    0.050044
   1 O :   -0.097822
   2 N :    0.086839
   3 C :    0.001657
   4 O :   -0.146418
   5 C :   -0.043357
   6 C :   -0.018317
   7 H :    0.029667
   8 H :    0.014745
   9 H :    0.011230
  10 H :    0.070066
  11 H :    0.041665

  Mayer bond orders larger than 0.1
B(  0-C ,  1-O ) :   0.9575 B(  0-C ,  7-H ) :   0.9723 B(  0-C ,  8-H ) :   0.9680
B(  0-C ,  9-H ) :   0.9691 B(  1-O ,  2-N ) :   0.9595 B(  2-N ,  3-C ) :   1.1512
B(  2-N ,  4-O ) :   0.1138 B(  2-N , 10-H ) :   0.9135 B(  3-C ,  4-O ) :   2.0942
B(  3-C ,  5-C ) :   0.8608 B(  5-C ,  6-C ) :   2.3787 B(  6-C , 11-H ) :   1.0862

FINAL SINGLE POINT ENERGY      -359.816406682474

DIPOLE MOMENT
-------------
                                X             Y             Z
Electronic contribution:      3.52090       1.45685       4.27207
Nuclear contribution   :     -4.45430      -1.94001      -5.12252
                        -----------------------------------------
Total Dipole Moment    :     -0.93340      -0.48316      -0.85045
                        -----------------------------------------
Magnitude (a.u.)       :      1.35201
Magnitude (Debye)      :      3.43654

                             ****ORCA TERMINATED NORMALLY****
TOTAL RUN TIME: 0 days 0 hours 0 minutes 5 seconds 787 msec
