                         Program Version 3.0.3 - RELEASE   -
|  1> ! RI PBE def2-SVP def2-SVP/J NBO PAL2
|  2> % maxcore 2000
|  3> % output
|  4>     # printlevel mini
|  5>     print[ P_Basis ] 0
|  6>     print[ P_SCFInfo ] 1
|  7>     print[ P_SCFIterInfo ] 1
|  8>     print[ P_OrbEn ] 0
|  9>     print[ P_Cartesian ] 0
| 10> end
| 11> *xyz 0 1
| 12>  N        1.4152150000    -0.0745910000    -0.7223460000
| 13>  C        2.7154840000     0.1620190000    -0.1696580000
| 14>  C        3.5307150000    -0.9099320000     0.5234740000
| 15>  C        3.9555680000    -0.3576950000    -0.8061310000
| 16>  O        4.9521040000     0.6182530000    -0.7871070000
| 17>  C        4.3096400000     1.8771890000    -0.6070230000
| 18>  C        3.0586120000     1.5956790000     0.2234010000
| 19>  H        1.4282900000    -0.8467330000    -1.3753450000
| 20>  H        0.7451190000    -0.3013240000     0.0029320000
| 21>  H        3.1191480000    -1.9136210000     0.5337350000
| 22>  H        4.1293460000    -0.6386690000     1.3856810000
| 23>  H        3.9381410000    -0.9841730000    -1.6937070000
| 24>  H        4.0339610000     2.2936780000    -1.5850950000
| 25>  H        5.0233240000     2.5507740000    -0.1293720000
| 26>  H        2.2342660000     2.2598870000    -0.0376050000
| 27>  H        3.2581780000     1.6892580000     1.2939770000
| 28> *
| 29>
| 30>                          ****END OF INPUT****
 Total Charge           Charge          ....    0
 Multiplicity           Mult            ....    1
 Number of Electrons    NEL             ....   54
 Basis Dimension        Dim             ....  143

MULLIKEN ATOMIC CHARGES
-----------------------
   0 N :   -0.090037
   1 C :   -0.296041
   2 C :    0.078604
   3 C :    0.089984
   4 O :   -0.323327
   5 C :    0.201492
   6 C :    0.084142
   7 H :    0.080864
   8 H :    0.095307
   9 H :    0.008332
  10 H :    0.015885
  11 H :    0.012501
  12 H :    0.006873
  13 H :    0.013997
  14 H :    0.009716
  15 H :    0.011707
Sum of atomic charges:   -0.0000000

LOEWDIN ATOMIC CHARGES
----------------------
   0 N :   -0.078134
   1 C :   -0.042751
   2 C :   -0.063163
   3 C :    0.041313
   4 O :   -0.142140
   5 C :    0.076670
   6 C :   -0.043779
   7 H :    0.053104
   8 H :    0.055926
   9 H :    0.023153
  10 H :    0.025437
  11 H :    0.012482
  12 H :    0.008686
  13 H :    0.017128
  14 H :    0.031601
  15 H :    0.024467

  Mayer bond orders larger than 0.1
B(  0-N ,  1-C ) :   1.1613 B(  0-N ,  7-H ) :   0.9566 B(  0-N ,  8-H ) :   0.9636
B(  1-C ,  2-C ) :   0.9289 B(  1-C ,  3-C ) :   0.9363 B(  1-C ,  6-C ) :   1.0690
B(  2-C ,  3-C ) :   0.9664 B(  2-C ,  9-H ) :   0.9268 B(  2-C , 10-H ) :   0.9094
B(  3-C ,  4-O ) :   1.0740 B(  3-C , 11-H ) :   0.9409 B(  4-O ,  5-C ) :   0.9869
B(  5-C ,  6-C ) :   1.1121 B(  5-C , 12-H ) :   0.9306 B(  5-C , 13-H ) :   0.9447
B(  6-C , 14-H ) :   0.9156 B(  6-C , 15-H ) :   0.9105

FINAL SINGLE POINT ENERGY      -325.224020388094

DIPOLE MOMENT
-------------
                                X             Y             Z
Electronic contribution:      2.01178      -0.58838      -1.20600
Nuclear contribution   :     -2.61143       0.32722       1.41318
                        -----------------------------------------
Total Dipole Moment    :     -0.59965      -0.26116       0.20718
                        -----------------------------------------
Magnitude (a.u.)       :      0.68608
Magnitude (Debye)      :      1.74387

                             ****ORCA TERMINATED NORMALLY****
TOTAL RUN TIME: 0 days 0 hours 0 minutes 7 seconds 250 msec
