                         Program Version 3.0.3 - RELEASE   -
|  1> ! RI PBE def2-SVP def2-SVP/J NBO PAL2
|  2> % maxcore 2000
|  3> % output
|  4>     # printlevel mini
|  5>     print[ P_Basis ] 0
|  6>     print[ P_SCFInfo ] 1
|  7>     print[ P_SCFIterInfo ] 1
|  8>     print[ P_OrbEn ] 0
|  9>     print[ P_Cartesian ] 0
| 10> end
| 11> *xyz 0 1
| 12>  N        1.6410790000    -0.4036970000    -0.8001090000
| 13>  C        2.8754150000    -0.0673540000    -0.1715880000
| 14>  C        3.6885880000    -1.1628700000     0.4406810000
| 15>  C        4.1953000000    -0.4520930000    -0.7780230000
| 16>  C        5.1174230000     0.7100310000    -0.5266410000
| 17>  O        4.5164200000     1.4539150000     0.5235580000
| 18>  C        3.1164400000     1.3072640000     0.4199480000
| 19>  H        0.8905280000    -0.4723190000    -0.1237690000
| 20>  H        1.3762350000     0.2896030000    -1.4899000000
| 21>  H        3.3121790000    -2.1667070000     0.2926360000
| 22>  H        4.1813790000    -0.9738370000     1.3882390000
| 23>  H        4.2280310000    -0.9756350000    -1.7245440000
| 24>  H        5.2141560000     1.3218590000    -1.4360480000
| 25>  H        6.1192270000     0.4303690000    -0.1903250000
| 26>  H        2.6801890000     2.0665880000    -0.2508880000
| 27>  H        2.6937810000     1.4472920000     1.4196840000
| 28> *
| 29>
| 30>                          ****END OF INPUT****
 Total Charge           Charge          ....    0
 Multiplicity           Mult            ....    1
 Number of Electrons    NEL             ....   54
 Basis Dimension        Dim             ....  143

MULLIKEN ATOMIC CHARGES
-----------------------
   0 N :   -0.112776
   1 C :   -0.325152
   2 C :    0.077725
   3 C :   -0.160493
   4 C :    0.298850
   5 O :   -0.362729
   6 C :    0.346015
   7 H :    0.097381
   8 H :    0.090317
   9 H :    0.024101
  10 H :    0.024427
  11 H :    0.012567
  12 H :   -0.001863
  13 H :    0.013272
  14 H :   -0.025523
  15 H :    0.003882
Sum of atomic charges:   -0.0000000

LOEWDIN ATOMIC CHARGES
----------------------
   0 N :   -0.073267
   1 C :   -0.055127
   2 C :   -0.034054
   3 C :   -0.056204
   4 C :    0.075823
   5 O :   -0.155392
   6 C :    0.060797
   7 H :    0.057103
   8 H :    0.053072
   9 H :    0.031935
  10 H :    0.026281
  11 H :    0.027141
  12 H :    0.007282
  13 H :    0.019086
  14 H :   -0.000554
  15 H :    0.016078

  Mayer bond orders larger than 0.1
B(  0-N ,  1-C ) :   1.1693 B(  0-N ,  7-H ) :   0.9658 B(  0-N ,  8-H ) :   0.9624
B(  1-C ,  2-C ) :   0.9585 B(  1-C ,  3-C ) :   0.9325 B(  1-C ,  6-C ) :   1.0186
B(  2-C ,  3-C ) :   0.9871 B(  2-C ,  9-H ) :   0.9276 B(  2-C , 10-H ) :   0.9294
B(  3-C ,  4-C ) :   1.0614 B(  3-C , 11-H ) :   0.9378 B(  4-C ,  5-O ) :   1.0026
B(  4-C , 12-H ) :   0.9217 B(  4-C , 13-H ) :   0.9327 B(  5-O ,  6-C ) :   1.0095
B(  6-C , 14-H ) :   0.9044 B(  6-C , 15-H ) :   0.9269

FINAL SINGLE POINT ENERGY      -325.233933076340

DIPOLE MOMENT
-------------
                                X             Y             Z
Electronic contribution:      0.87059       1.00236       0.68743
Nuclear contribution   :     -1.37710      -1.00330      -0.92581
                        -----------------------------------------
Total Dipole Moment    :     -0.50651      -0.00094      -0.23838
                        -----------------------------------------
Magnitude (a.u.)       :      0.55980
Magnitude (Debye)      :      1.42290

                             ****ORCA TERMINATED NORMALLY****
TOTAL RUN TIME: 0 days 0 hours 0 minutes 7 seconds 147 msec
