                         Program Version 3.0.3 - RELEASE   -
|  1> ! RI PBE def2-SVP def2-SVP/J NBO PAL2
|  2> % maxcore 2000
|  3> % output
|  4>     # printlevel mini
|  5>     print[ P_Basis ] 0
|  6>     print[ P_SCFInfo ] 1
|  7>     print[ P_SCFIterInfo ] 1
|  8>     print[ P_OrbEn ] 0
|  9>     print[ P_Cartesian ] 0
| 10> end
| 11> *xyz 0 1
| 12>  N        0.9586100000    -0.1662210000    -0.1614450000
| 13>  C        2.3741250000    -0.0156610000    -0.1209030000
| 14>  C        3.4284570000    -0.6028940000    -1.1179710000
| 15>  C        4.3569150000    -0.2310100000     0.0429630000
| 16>  C        3.2308480000    -0.6558700000     0.9967730000
| 17>  O        4.2927020000     1.1984980000     0.0704180000
| 18>  C        2.8834390000     1.4200200000    -0.0345310000
| 19>  H        0.6911700000    -1.1379220000    -0.2477050000
| 20>  H        0.5531200000     0.3375550000    -0.9408770000
| 21>  H        3.5900180000    -0.0954410000    -2.0713460000
| 22>  H        3.3128040000    -1.6793360000    -1.2511700000
| 23>  H        5.3876130000    -0.5628760000     0.1336890000
| 24>  H        3.1032280000    -1.7380460000     1.0498940000
| 25>  H        3.2062970000    -0.2022580000     1.9889510000
| 26>  H        2.6563020000     2.0088340000    -0.9309350000
| 27>  H        2.5043400000     1.9437180000     0.8483040000
| 28> *
| 29>
| 30>                          ****END OF INPUT****
 Total Charge           Charge          ....    0
 Multiplicity           Mult            ....    1
 Number of Electrons    NEL             ....   54
 Basis Dimension        Dim             ....  143

MULLIKEN ATOMIC CHARGES
-----------------------
   0 N :   -0.091168
   1 C :   -0.381659
   2 C :    0.104948
   3 C :    0.063106
   4 C :    0.113605
   5 O :   -0.329016
   6 C :    0.290248
   7 H :    0.092523
   8 H :    0.093993
   9 H :    0.006552
  10 H :    0.008027
  11 H :   -0.012625
  12 H :    0.014661
  13 H :    0.013051
  14 H :    0.002894
  15 H :    0.010858
Sum of atomic charges:   -0.0000000

LOEWDIN ATOMIC CHARGES
----------------------
   0 N :   -0.077379
   1 C :   -0.041399
   2 C :   -0.056120
   3 C :    0.073710
   4 C :   -0.035277
   5 O :   -0.163771
   6 C :    0.078176
   7 H :    0.056798
   8 H :    0.057823
   9 H :    0.014393
  10 H :    0.019920
  11 H :    0.009497
  12 H :    0.023103
  13 H :    0.019378
  14 H :    0.008427
  15 H :    0.012722

  Mayer bond orders larger than 0.1
B(  0-N ,  1-C ) :   1.1677 B(  0-N ,  7-H ) :   0.9541 B(  0-N ,  8-H ) :   0.9541
B(  1-C ,  2-C ) :   0.9131 B(  1-C ,  4-C ) :   0.9477 B(  1-C ,  6-C ) :   1.0201
B(  2-C ,  3-C ) :   0.9928 B(  2-C ,  9-H ) :   0.9166 B(  2-C , 10-H ) :   0.9296
B(  3-C ,  4-C ) :   0.9899 B(  3-C ,  5-O ) :   1.0122 B(  3-C , 11-H ) :   0.9576
B(  4-C , 12-H ) :   0.9339 B(  4-C , 13-H ) :   0.9116 B(  5-O ,  6-C ) :   0.9988
B(  6-C , 14-H ) :   0.9332 B(  6-C , 15-H ) :   0.9335

FINAL SINGLE POINT ENERGY      -325.221962067306

DIPOLE MOMENT
-------------
                                X             Y             Z
Electronic contribution:      1.79028       1.66376       0.43420
Nuclear contribution   :     -2.32293      -2.29322      -0.87436
                        -----------------------------------------
Total Dipole Moment    :     -0.53265      -0.62947      -0.44016
                        -----------------------------------------
Magnitude (a.u.)       :      0.93471
Magnitude (Debye)      :      2.37584

                             ****ORCA TERMINATED NORMALLY****
TOTAL RUN TIME: 0 days 0 hours 0 minutes 7 seconds 278 msec
