                         Program Version 3.0.3 - RELEASE   -
|  1> ! RI PBE def2-SVP def2-SVP/J NBO PAL2
|  2> % maxcore 2000
|  3> % output
|  4>     # printlevel mini
|  5>     print[ P_Basis ] 0
|  6>     print[ P_SCFInfo ] 1
|  7>     print[ P_SCFIterInfo ] 1
|  8>     print[ P_OrbEn ] 0
|  9>     print[ P_Cartesian ] 0
| 10> end
| 11> *xyz 0 1
| 12>  N        1.1173080000     0.1358410000     0.1485440000
| 13>  C        2.5497850000     0.0638690000     0.0593120000
| 14>  C        3.1785150000    -0.8917480000    -0.9858240000
| 15>  C        4.6808610000    -0.6753680000    -0.8152130000
| 16>  C        4.6546870000     0.8766030000    -0.8006150000
| 17>  C        3.1457900000     1.0467110000    -0.9589850000
| 18>  O        2.8354420000     0.0847680000    -2.0085560000
| 19>  H        0.7466370000    -0.6692190000     0.6383090000
| 20>  H        0.7226620000     0.1324390000    -0.7857350000
| 21>  H        2.9892440000     0.0578590000     1.0610370000
| 22>  H        2.7971170000    -1.8944960000    -1.1801980000
| 23>  H        5.2456540000    -1.0812960000    -1.6547670000
| 24>  H        5.0665540000    -1.1123320000     0.1085290000
| 25>  H        5.1939780000     1.3155070000    -1.6400920000
| 26>  H        5.0339180000     1.3119530000     0.1259540000
| 27>  H        2.7262490000     2.0388080000    -1.1221980000
| 28> *
| 29>
| 30>                          ****END OF INPUT****
 Total Charge           Charge          ....    0
 Multiplicity           Mult            ....    1
 Number of Electrons    NEL             ....   54
 Basis Dimension        Dim             ....  143

MULLIKEN ATOMIC CHARGES
-----------------------
   0 N :   -0.108595
   1 C :   -0.082116
   2 C :    0.050772
   3 C :    0.105919
   4 C :    0.122527
   5 C :    0.031008
   6 O :   -0.337525
   7 H :    0.091769
   8 H :    0.083442
   9 H :    0.006318
  10 H :   -0.013036
  11 H :    0.016939
  12 H :    0.006918
  13 H :    0.018372
  14 H :    0.009377
  15 H :   -0.002088
Sum of atomic charges:    0.0000000

LOEWDIN ATOMIC CHARGES
----------------------
   0 N :   -0.084717
   1 C :   -0.011460
   2 C :    0.053509
   3 C :   -0.043453
   4 C :   -0.041108
   5 C :    0.073452
   6 O :   -0.181332
   7 H :    0.054506
   8 H :    0.051909
   9 H :    0.011492
  10 H :    0.004779
  11 H :    0.026399
  12 H :    0.023422
  13 H :    0.027272
  14 H :    0.024701
  15 H :    0.010629

  Mayer bond orders larger than 0.1
B(  0-N ,  1-C ) :   1.1674 B(  0-N ,  7-H ) :   0.9642 B(  0-N ,  8-H ) :   0.9471
B(  1-C ,  2-C ) :   0.9256 B(  1-C ,  5-C ) :   0.9657 B(  1-C ,  9-H ) :   0.9336
B(  2-C ,  3-C ) :   1.0477 B(  2-C ,  6-O ) :   0.9618 B(  2-C , 10-H ) :   0.9562
B(  3-C ,  4-C ) :   1.1007 B(  3-C , 11-H ) :   0.9054 B(  3-C , 12-H ) :   0.9090
B(  4-C ,  5-C ) :   1.0577 B(  4-C , 13-H ) :   0.9086 B(  4-C , 14-H ) :   0.9090
B(  5-C ,  6-O ) :   0.9580 B(  5-C , 15-H ) :   0.9594

FINAL SINGLE POINT ENERGY      -325.220907151177

DIPOLE MOMENT
-------------
                                X             Y             Z
Electronic contribution:     -1.99407       0.21637      -1.92746
Nuclear contribution   :      2.17321      -0.62247       2.33649
                        -----------------------------------------
Total Dipole Moment    :      0.17915      -0.40610       0.40903
                        -----------------------------------------
Magnitude (a.u.)       :      0.60358
Magnitude (Debye)      :      1.53419

                             ****ORCA TERMINATED NORMALLY****
TOTAL RUN TIME: 0 days 0 hours 0 minutes 7 seconds 410 msec
