                         Program Version 3.0.3 - RELEASE   -
|  1> ! RI PBE def2-SVP def2-SVP/J NBO PAL2
|  2> % maxcore 2000
|  3> % output
|  4>     # printlevel mini
|  5>     print[ P_Basis ] 0
|  6>     print[ P_SCFInfo ] 1
|  7>     print[ P_SCFIterInfo ] 1
|  8>     print[ P_OrbEn ] 0
|  9>     print[ P_Cartesian ] 0
| 10> end
| 11> *xyz 0 1
| 12>  N        0.7140800000     0.1176060000    -0.1635440000
| 13>  C        2.1041540000     0.0707310000     0.1333890000
| 14>  C        3.0876270000    -0.9192620000    -0.4833660000
| 15>  C        2.6259780000    -1.6982800000    -1.6969230000
| 16>  C        2.7159050000    -0.6653260000    -2.8209900000
| 17>  O        2.5823360000     0.6102450000    -2.2012380000
| 18>  C        3.0885570000     0.5185260000    -0.8996190000
| 19>  H        0.2447160000    -0.7591020000     0.0201940000
| 20>  H        0.5680720000     0.3730710000    -1.1323580000
| 21>  H        2.3534270000     0.3549180000     1.1525850000
| 22>  H        3.8704310000    -1.3236180000     0.1457140000
| 23>  H        1.6010840000    -2.0639060000    -1.5774710000
| 24>  H        3.2665120000    -2.5611440000    -1.8852730000
| 25>  H        1.9263290000    -0.7551340000    -3.5700840000
| 26>  H        3.6872430000    -0.7260120000    -3.3297690000
| 27>  H        3.8812500000     1.2217870000    -0.6700470000
| 28> *
| 29>
| 30>                          ****END OF INPUT****
 Total Charge           Charge          ....    0
 Multiplicity           Mult            ....    1
 Number of Electrons    NEL             ....   54
 Basis Dimension        Dim             ....  143

MULLIKEN ATOMIC CHARGES
-----------------------
   0 N :   -0.112819
   1 C :   -0.036377
   2 C :   -0.161496
   3 C :    0.060382
   4 C :    0.200533
   5 O :   -0.329869
   6 C :    0.109125
   7 H :    0.099103
   8 H :    0.085654
   9 H :    0.010972
  10 H :    0.017605
  11 H :   -0.007787
  12 H :    0.018235
  13 H :    0.016705
  14 H :    0.006907
  15 H :    0.023126
Sum of atomic charges:    0.0000000

LOEWDIN ATOMIC CHARGES
----------------------
   0 N :   -0.074541
   1 C :   -0.013921
   2 C :   -0.072797
   3 C :   -0.047077
   4 C :    0.071589
   5 O :   -0.139414
   6 C :    0.041906
   7 H :    0.053622
   8 H :    0.047328
   9 H :    0.020946
  10 H :    0.023898
  11 H :    0.015140
  12 H :    0.032857
  13 H :    0.016817
  14 H :    0.009362
  15 H :    0.014284

  Mayer bond orders larger than 0.1
B(  0-N ,  1-C ) :   1.2163 B(  0-N ,  7-H ) :   0.9681 B(  0-N ,  8-H ) :   0.9483
B(  1-C ,  2-C ) :   0.8636 B(  1-C ,  6-C ) :   0.9203 B(  1-C ,  9-H ) :   0.9394
B(  2-C ,  3-C ) :   1.0973 B(  2-C ,  6-C ) :   0.9520 B(  2-C , 10-H ) :   0.9448
B(  3-C ,  4-C ) :   1.1005 B(  3-C , 11-H ) :   0.8989 B(  3-C , 12-H ) :   0.9281
B(  4-C ,  5-O ) :   0.9793 B(  4-C , 13-H ) :   0.9443 B(  4-C , 14-H ) :   0.9332
B(  5-O ,  6-C ) :   1.0573 B(  6-C , 15-H ) :   0.9467

FINAL SINGLE POINT ENERGY      -325.226128014710

DIPOLE MOMENT
-------------
                                X             Y             Z
Electronic contribution:      0.33355       2.72137       0.04624
Nuclear contribution   :     -0.07424      -3.51875      -0.15898
                        -----------------------------------------
Total Dipole Moment    :      0.25931      -0.79738      -0.11274
                        -----------------------------------------
Magnitude (a.u.)       :      0.84603
Magnitude (Debye)      :      2.15043

                             ****ORCA TERMINATED NORMALLY****
TOTAL RUN TIME: 0 days 0 hours 0 minutes 7 seconds 167 msec
