                         Program Version 3.0.3 - RELEASE   -
|  1> ! RI PBE def2-SVP def2-SVP/J NBO PAL2
|  2> % maxcore 2000
|  3> % output
|  4>     # printlevel mini
|  5>     print[ P_Basis ] 0
|  6>     print[ P_SCFInfo ] 1
|  7>     print[ P_SCFIterInfo ] 1
|  8>     print[ P_OrbEn ] 0
|  9>     print[ P_Cartesian ] 0
| 10> end
| 11> *xyz 0 1
| 12>  N        1.0764310000    -0.0755650000     0.0915060000
| 13>  C        2.5177280000    -0.0455650000     0.0727700000
| 14>  C        3.1142250000     1.0018440000    -0.9110040000
| 15>  C        2.7680700000     0.0076150000    -2.0475340000
| 16>  C        3.1721360000    -0.9925530000    -0.9586960000
| 17>  O        4.5629450000    -0.7407690000    -0.7610630000
| 18>  C        4.5914760000     0.6985850000    -0.7271550000
| 19>  H        0.7074100000     0.7324600000     0.5771540000
| 20>  H        0.7429070000    -0.8956490000     0.5826290000
| 21>  H        2.9967740000    -0.0780610000     1.0618370000
| 22>  H        2.8020320000     2.0458230000    -0.9148300000
| 23>  H        3.3782080000     0.0263560000    -2.9518770000
| 24>  H        1.7044860000    -0.0120690000    -2.2667410000
| 25>  H        2.9872650000    -2.0645190000    -1.0030510000
| 26>  H        5.2190300000     1.0822060000    -1.5375710000
| 27>  H        4.9934460000     1.0395510000     0.2322170000
| 28> *
| 29>
| 30>                          ****END OF INPUT****
 Total Charge           Charge          ....    0
 Multiplicity           Mult            ....    1
 Number of Electrons    NEL             ....   54
 Basis Dimension        Dim             ....  143

MULLIKEN ATOMIC CHARGES
-----------------------
   0 N :   -0.128090
   1 C :   -0.053424
   2 C :   -0.219166
   3 C :    0.120277
   4 C :    0.079104
   5 O :   -0.331141
   6 C :    0.284914
   7 H :    0.094485
   8 H :    0.095653
   9 H :    0.002388
  10 H :   -0.003411
  11 H :    0.013204
  12 H :    0.029972
  13 H :   -0.002760
  14 H :    0.010712
  15 H :    0.007283
Sum of atomic charges:   -0.0000000

LOEWDIN ATOMIC CHARGES
----------------------
   0 N :   -0.089413
   1 C :   -0.006551
   2 C :   -0.041199
   3 C :   -0.034387
   4 C :    0.067165
   5 O :   -0.165916
   6 C :    0.078666
   7 H :    0.054931
   8 H :    0.055999
   9 H :   -0.004118
  10 H :    0.013114
  11 H :    0.015967
  12 H :    0.025641
  13 H :    0.008027
  14 H :    0.011766
  15 H :    0.010307

  Mayer bond orders larger than 0.1
B(  0-N ,  1-C ) :   1.1377 B(  0-N ,  7-H ) :   0.9627 B(  0-N ,  8-H ) :   0.9656
B(  1-C ,  2-C ) :   0.9275 B(  1-C ,  4-C ) :   0.9349 B(  1-C ,  9-H ) :   0.9232
B(  2-C ,  3-C ) :   0.9816 B(  2-C ,  6-C ) :   1.0433 B(  2-C , 10-H ) :   0.9359
B(  3-C ,  4-C ) :   1.0045 B(  3-C , 11-H ) :   0.9318 B(  3-C , 12-H ) :   0.9200
B(  4-C ,  5-O ) :   1.0361 B(  4-C , 13-H ) :   0.9443 B(  5-O ,  6-C ) :   0.9691
B(  6-C , 14-H ) :   0.9401 B(  6-C , 15-H ) :   0.9384

FINAL SINGLE POINT ENERGY      -325.215555514119

DIPOLE MOMENT
-------------
                                X             Y             Z
Electronic contribution:      1.69855      -1.60295       0.14575
Nuclear contribution   :     -2.26660       2.00252       0.30720
                        -----------------------------------------
Total Dipole Moment    :     -0.56805       0.39957       0.45296
                        -----------------------------------------
Magnitude (a.u.)       :      0.82916
Magnitude (Debye)      :      2.10755

                             ****ORCA TERMINATED NORMALLY****
TOTAL RUN TIME: 0 days 0 hours 0 minutes 7 seconds 188 msec
