                         Program Version 3.0.3 - RELEASE   -
|  1> ! RI PBE def2-SVP def2-SVP/J NBO PAL2
|  2> % maxcore 2000
|  3> % output
|  4>     # printlevel mini
|  5>     print[ P_Basis ] 0
|  6>     print[ P_SCFInfo ] 1
|  7>     print[ P_SCFIterInfo ] 1
|  8>     print[ P_OrbEn ] 0
|  9>     print[ P_Cartesian ] 0
| 10> end
| 11> *xyz 0 1
| 12>  N        0.7580170000     0.0877240000     0.0752650000
| 13>  C        2.1858640000     0.0737130000     0.1877280000
| 14>  C        3.1166910000    -0.8745880000    -0.5293720000
| 15>  C        2.5457240000    -1.6040690000    -1.7154040000
| 16>  O        1.8806000000    -0.6272490000    -2.5043400000
| 17>  C        2.4968540000     0.6339770000    -2.2900260000
| 18>  C        3.0696560000     0.5899960000    -0.8988980000
| 19>  H        0.3474770000    -0.5822680000     0.7137730000
| 20>  H        0.4701040000    -0.1671610000    -0.8624070000
| 21>  H        2.5164650000     0.3455070000     1.1854200000
| 22>  H        3.9657040000    -1.3069830000    -0.0131630000
| 23>  H        1.8008190000    -2.3632040000    -1.4556360000
| 24>  H        3.3477920000    -2.0923150000    -2.2865570000
| 25>  H        1.7267160000     1.3971520000    -2.4331720000
| 26>  H        3.2986420000     0.8106600000    -3.0207930000
| 27>  H        3.8808770000     1.2664880000    -0.6590180000
| 28> *
| 29>
| 30>                          ****END OF INPUT****
 Total Charge           Charge          ....    0
 Multiplicity           Mult            ....    1
 Number of Electrons    NEL             ....   54
 Basis Dimension        Dim             ....  143

MULLIKEN ATOMIC CHARGES
-----------------------
   0 N :   -0.113702
   1 C :   -0.012159
   2 C :   -0.164599
   3 C :    0.285498
   4 O :   -0.373419
   5 C :    0.286885
   6 C :   -0.182813
   7 H :    0.095081
   8 H :    0.086220
   9 H :    0.010583
  10 H :    0.014149
  11 H :    0.008082
  12 H :    0.004715
  13 H :    0.025784
  14 H :    0.005215
  15 H :    0.024478
Sum of atomic charges:    0.0000000

LOEWDIN ATOMIC CHARGES
----------------------
   0 N :   -0.084121
   1 C :    0.000651
   2 C :   -0.079511
   3 C :    0.070190
   4 O :   -0.159217
   5 C :    0.071535
   6 C :   -0.061288
   7 H :    0.057937
   8 H :    0.047599
   9 H :    0.026835
  10 H :    0.023107
  11 H :    0.013909
  12 H :    0.011301
  13 H :    0.021646
  14 H :    0.011983
  15 H :    0.027445

  Mayer bond orders larger than 0.1
B(  0-N ,  1-C ) :   1.1884 B(  0-N ,  7-H ) :   0.9634 B(  0-N ,  8-H ) :   0.9370
B(  1-C ,  2-C ) :   0.8798 B(  1-C ,  6-C ) :   0.9377 B(  1-C ,  9-H ) :   0.9335
B(  2-C ,  3-C ) :   1.0673 B(  2-C ,  6-C ) :   0.9487 B(  2-C , 10-H ) :   0.9345
B(  3-C ,  4-O ) :   0.9900 B(  3-C , 11-H ) :   0.9314 B(  3-C , 12-H ) :   0.9270
B(  4-O ,  5-C ) :   0.9877 B(  5-C ,  6-C ) :   1.0751 B(  5-C , 13-H ) :   0.9349
B(  5-C , 14-H ) :   0.9242 B(  6-C , 15-H ) :   0.9365

FINAL SINGLE POINT ENERGY      -325.230421983288

DIPOLE MOMENT
-------------
                                X             Y             Z
Electronic contribution:     -0.55685       0.03197      -0.85964
Nuclear contribution   :      0.99646      -0.33982       1.14843
                        -----------------------------------------
Total Dipole Moment    :      0.43961      -0.30785       0.28879
                        -----------------------------------------
Magnitude (a.u.)       :      0.60945
Magnitude (Debye)      :      1.54910

                             ****ORCA TERMINATED NORMALLY****
TOTAL RUN TIME: 0 days 0 hours 0 minutes 7 seconds 203 msec
