                         Program Version 3.0.3 - RELEASE   -
|  1> ! RI PBE def2-SVP def2-SVP/J NBO PAL2
|  2> % maxcore 2000
|  3> % output
|  4>     # printlevel mini
|  5>     print[ P_Basis ] 0
|  6>     print[ P_SCFInfo ] 1
|  7>     print[ P_SCFIterInfo ] 1
|  8>     print[ P_OrbEn ] 0
|  9>     print[ P_Cartesian ] 0
| 10> end
| 11> *xyz 0 1
| 12>  N        0.8698830000    -0.1301660000    -0.3838480000
| 13>  C        2.2518680000     0.0131990000    -0.0889390000
| 14>  C        3.4321910000    -0.8286400000    -0.7120790000
| 15>  O        4.2748200000     0.3147520000    -0.4253690000
| 16>  C        3.1072190000     1.0774420000    -0.8278210000
| 17>  C        2.9462020000     0.6503690000    -2.2871340000
| 18>  C        3.1735830000    -0.6597930000    -2.2050370000
| 19>  H        0.4312800000    -0.8446640000     0.1799740000
| 20>  H        0.7169790000    -0.3357550000    -1.3638070000
| 21>  H        2.3984660000     0.1006340000     0.9894000000
| 22>  H        3.7938900000    -1.7763300000    -0.3168730000
| 23>  H        3.1277380000     2.1325000000    -0.5626060000
| 24>  H        2.7134240000     1.2751760000    -3.1367000000
| 25>  H        3.1771660000    -1.4225250000    -2.9698500000
| 26> *
| 27>
| 28>                          ****END OF INPUT****
 Total Charge           Charge          ....    0
 Multiplicity           Mult            ....    1
 Number of Electrons    NEL             ....   52
 Basis Dimension        Dim             ....  133

MULLIKEN ATOMIC CHARGES
-----------------------
   0 N :   -0.095839
   1 C :   -0.094180
   2 C :    0.148284
   3 O :   -0.302741
   4 C :    0.150970
   5 C :    0.018924
   6 C :   -0.000484
   7 H :    0.099053
   8 H :    0.081969
   9 H :    0.025757
  10 H :   -0.011338
  11 H :   -0.002608
  12 H :   -0.008169
  13 H :   -0.009598
Sum of atomic charges:    0.0000000

LOEWDIN ATOMIC CHARGES
----------------------
   0 N :   -0.081269
   1 C :   -0.001091
   2 C :    0.048561
   3 O :   -0.164813
   4 C :    0.068660
   5 C :   -0.028637
   6 C :   -0.036707
   7 H :    0.059059
   8 H :    0.047753
   9 H :    0.025980
  10 H :    0.006542
  11 H :    0.011466
  12 H :    0.022817
  13 H :    0.021679

  Mayer bond orders larger than 0.1
B(  0-N ,  1-C ) :   1.1791 B(  0-N ,  7-H ) :   0.9581 B(  0-N ,  8-H ) :   0.9448
B(  1-C ,  2-C ) :   0.8916 B(  1-C ,  4-C ) :   0.9489 B(  1-C ,  9-H ) :   0.9155
B(  2-C ,  3-O ) :   0.9699 B(  2-C ,  6-C ) :   0.9053 B(  2-C , 10-H ) :   0.9680
B(  3-O ,  4-C ) :   0.9738 B(  4-C ,  5-C ) :   0.9163 B(  4-C , 11-H ) :   0.9689
B(  5-C ,  6-C ) :   1.7423 B(  5-C , 12-H ) :   1.0233 B(  6-C , 13-H ) :   1.0227

FINAL SINGLE POINT ENERGY      -323.981431295339

DIPOLE MOMENT
-------------
                                X             Y             Z
Electronic contribution:      2.62846       0.64369       0.19657
Nuclear contribution   :     -3.31685      -1.17731      -0.44078
                        -----------------------------------------
Total Dipole Moment    :     -0.68839      -0.53362      -0.24422
                        -----------------------------------------
Magnitude (a.u.)       :      0.90458
Magnitude (Debye)      :      2.29927

                             ****ORCA TERMINATED NORMALLY****
TOTAL RUN TIME: 0 days 0 hours 0 minutes 6 seconds 466 msec
