                         Program Version 3.0.3 - RELEASE   -
|  1> ! RI PBE def2-SVP def2-SVP/J NBO PAL2
|  2> % maxcore 2000
|  3> % output
|  4>     # printlevel mini
|  5>     print[ P_Basis ] 0
|  6>     print[ P_SCFInfo ] 1
|  7>     print[ P_SCFIterInfo ] 1
|  8>     print[ P_OrbEn ] 0
|  9>     print[ P_Cartesian ] 0
| 10> end
| 11> *xyz 0 1
| 12>  N        1.0607930000     0.0406370000    -0.4903690000
| 13>  C        2.2424860000     0.0504630000     0.2966290000
| 14>  C        3.4469470000     0.7885240000    -0.1966310000
| 15>  O        3.4800650000     1.1776640000    -1.5445800000
| 16>  C        3.5000920000     0.0381940000    -2.2880680000
| 17>  C        3.5539300000    -1.0834890000    -1.5753310000
| 18>  C        3.4773170000    -0.7260910000    -0.1444060000
| 19>  H        0.5410330000     0.9024280000    -0.3968590000
| 20>  H        0.4571320000    -0.7358290000    -0.2580250000
| 21>  H        2.1537780000     0.0956250000     1.3831320000
| 22>  H        3.9997030000     1.4591610000     0.4484630000
| 23>  H        3.4697200000     0.1927580000    -3.3566110000
| 24>  H        3.6081670000    -2.0838250000    -1.9747300000
| 25>  H        4.0257280000    -1.2864190000     0.6030770000
| 26> *
| 27>
| 28>                          ****END OF INPUT****
 Total Charge           Charge          ....    0
 Multiplicity           Mult            ....    1
 Number of Electrons    NEL             ....   52
 Basis Dimension        Dim             ....  133

MULLIKEN ATOMIC CHARGES
-----------------------
   0 N :   -0.110630
   1 C :   -0.084374
   2 C :    0.126404
   3 O :   -0.231219
   4 C :    0.134249
   5 C :   -0.013514
   6 C :   -0.057727
   7 H :    0.097590
   8 H :    0.096277
   9 H :    0.008608
  10 H :    0.023172
  11 H :    0.003620
  12 H :   -0.011248
  13 H :    0.018791
Sum of atomic charges:   -0.0000000

LOEWDIN ATOMIC CHARGES
----------------------
   0 N :   -0.078191
   1 C :   -0.031619
   2 C :    0.053505
   3 O :   -0.054928
   4 C :    0.045646
   5 C :   -0.101342
   6 C :   -0.048393
   7 H :    0.058344
   8 H :    0.057725
   9 H :    0.009515
  10 H :    0.017853
  11 H :    0.020500
  12 H :    0.026746
  13 H :    0.024638

  Mayer bond orders larger than 0.1
B(  0-N ,  1-C ) :   1.2001 B(  0-N ,  7-H ) :   0.9679 B(  0-N ,  8-H ) :   0.9684
B(  1-C ,  2-C ) :   0.9139 B(  1-C ,  6-C ) :   0.8776 B(  1-C ,  9-H ) :   0.9322
B(  2-C ,  3-O ) :   1.0497 B(  2-C ,  6-C ) :   0.9312 B(  2-C , 10-H ) :   0.9587
B(  3-O ,  4-C ) :   1.0982 B(  4-C ,  5-C ) :   1.7006 B(  4-C , 11-H ) :   0.9882
B(  5-C ,  6-C ) :   1.0536 B(  5-C , 12-H ) :   0.9986 B(  6-C , 13-H ) :   0.9480

FINAL SINGLE POINT ENERGY      -324.013702714046

DIPOLE MOMENT
-------------
                                X             Y             Z
Electronic contribution:      1.66928       1.61022      -1.66355
Nuclear contribution   :     -2.06407      -1.80588       2.21118
                        -----------------------------------------
Total Dipole Moment    :     -0.39479      -0.19566       0.54763
                        -----------------------------------------
Magnitude (a.u.)       :      0.70288
Magnitude (Debye)      :      1.78659

                             ****ORCA TERMINATED NORMALLY****
TOTAL RUN TIME: 0 days 0 hours 0 minutes 6 seconds 832 msec
