                         Program Version 3.0.3 - RELEASE   -
|  1> ! RI PBE def2-SVP def2-SVP/J NBO PAL2
|  2> % maxcore 2000
|  3> % output
|  4>     # printlevel mini
|  5>     print[ P_Basis ] 0
|  6>     print[ P_SCFInfo ] 1
|  7>     print[ P_SCFIterInfo ] 1
|  8>     print[ P_OrbEn ] 0
|  9>     print[ P_Cartesian ] 0
| 10> end
| 11> *xyz 0 1
| 12>  N        0.8550320000     0.0025180000    -0.1567890000
| 13>  C        2.2469950000     0.0903870000     0.1199040000
| 14>  C        3.2859570000    -0.8189790000    -0.5136310000
| 15>  O        2.8385100000    -1.5791100000    -1.6026270000
| 16>  C        2.9249960000    -0.7218850000    -2.7137360000
| 17>  O        2.6750790000     0.5835160000    -2.2427320000
| 18>  C        3.1873220000     0.6072060000    -0.9360630000
| 19>  H        0.5157010000    -0.9434940000    -0.0387090000
| 20>  H        0.6786540000     0.2716720000    -1.1169650000
| 21>  H        2.5004420000     0.4046700000     1.1302110000
| 22>  H        4.1092400000    -1.2419780000     0.0497730000
| 23>  H        2.1596940000    -0.9938590000    -3.4426210000
| 24>  H        3.9301860000    -0.7748200000    -3.1600960000
| 25>  H        3.9250720000     1.3753560000    -0.7391000000
| 26> *
| 27>
| 28>                          ****END OF INPUT****
 Total Charge           Charge          ....    0
 Multiplicity           Mult            ....    1
 Number of Electrons    NEL             ....   54
 Basis Dimension        Dim             ....  133

MULLIKEN ATOMIC CHARGES
-----------------------
   0 N :   -0.111848
   1 C :   -0.046608
   2 C :    0.068422
   3 O :   -0.310724
   4 C :    0.348472
   5 O :   -0.318675
   6 C :    0.079843
   7 H :    0.101322
   8 H :    0.086841
   9 H :    0.013265
  10 H :    0.023148
  11 H :    0.031471
  12 H :    0.001955
  13 H :    0.033115
Sum of atomic charges:   -0.0000000

LOEWDIN ATOMIC CHARGES
----------------------
   0 N :   -0.076909
   1 C :   -0.025747
   2 C :    0.015878
   3 O :   -0.133730
   4 C :    0.149013
   5 O :   -0.131306
   6 C :    0.030154
   7 H :    0.058730
   8 H :    0.048980
   9 H :    0.022567
  10 H :    0.015379
  11 H :    0.013955
  12 H :   -0.005456
  13 H :    0.018493

  Mayer bond orders larger than 0.1
B(  0-N ,  1-C ) :   1.2078 B(  0-N ,  7-H ) :   0.9666 B(  0-N ,  8-H ) :   0.9506
B(  1-C ,  2-C ) :   0.8504 B(  1-C ,  6-C ) :   0.9000 B(  1-C ,  9-H ) :   0.9347
B(  2-C ,  3-O ) :   1.0534 B(  2-C ,  6-C ) :   0.9573 B(  2-C , 10-H ) :   0.9535
B(  3-O ,  4-C ) :   1.0258 B(  4-C ,  5-O ) :   1.0074 B(  4-C , 11-H ) :   0.9543
B(  4-C , 12-H ) :   0.9315 B(  5-O ,  6-C ) :   1.0383 B(  6-C , 13-H ) :   0.9547

FINAL SINGLE POINT ENERGY      -361.074204589598

DIPOLE MOMENT
-------------
                                X             Y             Z
Electronic contribution:      0.50055      -0.23717      -1.01083
Nuclear contribution   :     -0.04560       0.02494       0.89120
                        -----------------------------------------
Total Dipole Moment    :      0.45496      -0.21223      -0.11962
                        -----------------------------------------
Magnitude (a.u.)       :      0.51608
Magnitude (Debye)      :      1.31176

                             ****ORCA TERMINATED NORMALLY****
TOTAL RUN TIME: 0 days 0 hours 0 minutes 6 seconds 361 msec
