                         Program Version 3.0.3 - RELEASE   -
|  1> ! RI PBE def2-SVP def2-SVP/J NBO PAL2
|  2> % maxcore 2000
|  3> % output
|  4>     # printlevel mini
|  5>     print[ P_Basis ] 0
|  6>     print[ P_SCFInfo ] 1
|  7>     print[ P_SCFIterInfo ] 1
|  8>     print[ P_OrbEn ] 0
|  9>     print[ P_Cartesian ] 0
| 10> end
| 11> *xyz 0 1
| 12>  N        0.8930480000    -0.1612680000    -0.3136070000
| 13>  C        2.1533920000    -0.0872790000     0.3309590000
| 14>  C        3.2559980000     0.6885640000    -0.3032090000
| 15>  O        3.1098620000     1.0487200000    -1.6492970000
| 16>  N        3.0775720000    -0.0910680000    -2.4333320000
| 17>  C        3.2477060000    -1.1110390000    -1.6897460000
| 18>  C        3.3600490000    -0.8159870000    -0.2570380000
| 19>  H        0.4226720000     0.7326590000    -0.3364750000
| 20>  H        0.2865180000    -0.8517750000     0.1041590000
| 21>  H        2.1933020000    -0.0508470000     1.4199300000
| 22>  H        3.8631080000     1.3865350000     0.2593680000
| 23>  H        3.2908800000    -2.0888200000    -2.1503910000
| 24>  H        4.0180930000    -1.3845060000     0.3868780000
| 25> *
| 26>
| 27>                          ****END OF INPUT****
 Total Charge           Charge          ....    0
 Multiplicity           Mult            ....    1
 Number of Electrons    NEL             ....   52
 Basis Dimension        Dim             ....  128

MULLIKEN ATOMIC CHARGES
-----------------------
   0 N :   -0.110491
   1 C :   -0.082718
   2 C :    0.148355
   3 O :   -0.224503
   4 N :    0.019642
   5 C :    0.040662
   6 C :   -0.100711
   7 H :    0.106323
   8 H :    0.099432
   9 H :    0.021274
  10 H :    0.032830
  11 H :    0.017492
  12 H :    0.032413
Sum of atomic charges:    0.0000000

LOEWDIN ATOMIC CHARGES
----------------------
   0 N :   -0.078384
   1 C :   -0.023394
   2 C :    0.040938
   3 O :   -0.058775
   4 N :    0.010700
   5 C :   -0.038661
   6 C :   -0.074041
   7 H :    0.062405
   8 H :    0.060349
   9 H :    0.014687
  10 H :    0.023545
  11 H :    0.030006
  12 H :    0.030626

  Mayer bond orders larger than 0.1
B(  0-N ,  1-C ) :   1.2080 B(  0-N ,  7-H ) :   0.9650 B(  0-N ,  8-H ) :   0.9682
B(  1-C ,  2-C ) :   0.9287 B(  1-C ,  6-C ) :   0.8601 B(  1-C ,  9-H ) :   0.9355
B(  2-C ,  3-O ) :   1.0345 B(  2-C ,  6-C ) :   0.9312 B(  2-C , 10-H ) :   0.9524
B(  3-O ,  4-N ) :   0.9830 B(  4-N ,  5-C ) :   1.8482 B(  5-C ,  6-C ) :   1.0131
B(  5-C , 11-H ) :   0.9781 B(  6-C , 12-H ) :   0.9506

FINAL SINGLE POINT ENERGY      -340.006383711190

DIPOLE MOMENT
-------------
                                X             Y             Z
Electronic contribution:      1.71158       1.37413      -3.31785
Nuclear contribution   :     -1.93893      -1.81754       4.74930
                        -----------------------------------------
Total Dipole Moment    :     -0.22735      -0.44342       1.43144
                        -----------------------------------------
Magnitude (a.u.)       :      1.51570
Magnitude (Debye)      :      3.85260

                             ****ORCA TERMINATED NORMALLY****
TOTAL RUN TIME: 0 days 0 hours 0 minutes 6 seconds 466 msec
