                         Program Version 3.0.3 - RELEASE   -
|  1> ! RI PBE def2-SVP def2-SVP/J NBO PAL2
|  2> % maxcore 2000
|  3> % output
|  4>     # printlevel mini
|  5>     print[ P_Basis ] 0
|  6>     print[ P_SCFInfo ] 1
|  7>     print[ P_SCFIterInfo ] 1
|  8>     print[ P_OrbEn ] 0
|  9>     print[ P_Cartesian ] 0
| 10> end
| 11> *xyz 0 1
| 12>  N        1.0167690000     0.2545920000    -0.1536940000
| 13>  C        2.4422720000     0.1163170000    -0.0836690000
| 14>  C        3.2190420000    -0.9692400000    -0.7808590000
| 15>  C        3.2718560000     0.4571760000    -1.2685300000
| 16>  C        4.5224540000     1.2515680000    -1.1312590000
| 17>  C        4.5804590000     2.4830930000    -0.3492470000
| 18>  O        5.1305480000     1.2725030000     0.1501420000
| 19>  H        0.5636560000    -0.4321970000     0.4376870000
| 20>  H        0.6840350000     0.1005180000    -1.0974330000
| 21>  H        2.8546740000     0.4289950000     0.8701920000
| 22>  H        2.6678730000    -1.6839350000    -1.3811970000
| 23>  H        4.0992210000    -1.3619640000    -0.2847060000
| 24>  H        2.7282780000     0.6621290000    -2.1876270000
| 25>  H        5.2353920000     1.1391620000    -1.9483940000
| 26>  H        3.6797500000     2.8233910000     0.1556970000
| 27>  H        5.3068410000     3.2522910000    -0.5992120000
| 28> *
| 29>
| 30>                          ****END OF INPUT****
 Total Charge           Charge          ....    0
 Multiplicity           Mult            ....    1
 Number of Electrons    NEL             ....   54
 Basis Dimension        Dim             ....  143

MULLIKEN ATOMIC CHARGES
-----------------------
   0 N :   -0.113172
   1 C :   -0.114103
   2 C :    0.032549
   3 C :   -0.058537
   4 C :    0.061958
   5 C :    0.135754
   6 O :   -0.289885
   7 H :    0.095470
   8 H :    0.073665
   9 H :    0.031039
  10 H :    0.008103
  11 H :    0.032065
  12 H :    0.020669
  13 H :    0.016994
  14 H :    0.035920
  15 H :    0.031511
Sum of atomic charges:   -0.0000000

LOEWDIN ATOMIC CHARGES
----------------------
   0 N :   -0.084667
   1 C :   -0.002951
   2 C :   -0.059660
   3 C :   -0.062024
   4 C :    0.045574
   5 C :    0.057809
   6 O :   -0.155323
   7 H :    0.056721
   8 H :    0.049975
   9 H :    0.023742
  10 H :    0.020443
  11 H :    0.028999
  12 H :    0.030648
  13 H :    0.017263
  14 H :    0.017705
  15 H :    0.015747

  Mayer bond orders larger than 0.1
B(  0-N ,  1-C ) :   1.1410 B(  0-N ,  7-H ) :   0.9661 B(  0-N ,  8-H ) :   0.9552
B(  1-C ,  2-C ) :   0.9611 B(  1-C ,  3-C ) :   0.9378 B(  1-C ,  9-H ) :   0.9311
B(  2-C ,  3-C ) :   0.9810 B(  2-C , 10-H ) :   0.9303 B(  2-C , 11-H ) :   0.9340
B(  3-C ,  4-C ) :   1.0495 B(  3-C , 12-H ) :   0.9340 B(  4-C ,  5-C ) :   1.0895
B(  4-C ,  6-O ) :   0.9829 B(  4-C , 13-H ) :   0.9383 B(  5-C ,  6-O ) :   0.9931
B(  5-C , 14-H ) :   0.9260 B(  5-C , 15-H ) :   0.9398

FINAL SINGLE POINT ENERGY      -325.198325910823

DIPOLE MOMENT
-------------
                                X             Y             Z
Electronic contribution:      2.52541       1.11223       0.87561
Nuclear contribution   :     -2.93291      -1.24692      -1.45675
                        -----------------------------------------
Total Dipole Moment    :     -0.40750      -0.13469      -0.58114
                        -----------------------------------------
Magnitude (a.u.)       :      0.72244
Magnitude (Debye)      :      1.83630

                             ****ORCA TERMINATED NORMALLY****
TOTAL RUN TIME: 0 days 0 hours 0 minutes 7 seconds 168 msec
