                         Program Version 3.0.3 - RELEASE   -
|  1> ! RI PBE def2-SVP def2-SVP/J NBO PAL2
|  2> % maxcore 2000
|  3> % output
|  4>     # printlevel mini
|  5>     print[ P_Basis ] 0
|  6>     print[ P_SCFInfo ] 1
|  7>     print[ P_SCFIterInfo ] 1
|  8>     print[ P_OrbEn ] 0
|  9>     print[ P_Cartesian ] 0
| 10> end
| 11> *xyz 0 1
| 12>  N        0.9453490000     0.5081060000     0.0810070000
| 13>  C        2.3147480000     0.0857620000     0.1178670000
| 14>  C        2.8805860000    -0.8688590000    -0.9053710000
| 15>  C        3.2486240000     0.5890790000    -0.9309270000
| 16>  C        2.8519870000    -0.0290760000     1.5040530000
| 17>  C        2.3142590000     0.7398870000     2.6190550000
| 18>  O        1.9988470000    -0.6406510000     2.4606290000
| 19>  H        0.6506370000     0.7101190000    -0.8643840000
| 20>  H        0.3483390000    -0.2226420000     0.4503720000
| 21>  H        2.2021710000    -1.2307850000    -1.6685370000
| 22>  H        3.6350850000    -1.5826610000    -0.5952050000
| 23>  H        4.2519400000     0.8737440000    -0.6366330000
| 24>  H        2.8263520000     1.2090890000    -1.7133820000
| 25>  H        3.8897670000    -0.3580550000     1.5593270000
| 26>  H        1.4914390000     1.4213160000     2.4283950000
| 27>  H        2.9538810000     0.9699090000     3.4677330000
| 28> *
| 29>
| 30>                          ****END OF INPUT****
 Total Charge           Charge          ....    0
 Multiplicity           Mult            ....    1
 Number of Electrons    NEL             ....   54
 Basis Dimension        Dim             ....  143

MULLIKEN ATOMIC CHARGES
-----------------------
   0 N :   -0.119534
   1 C :   -0.137482
   2 C :   -0.014246
   3 C :   -0.024173
   4 C :    0.077837
   5 C :    0.173779
   6 O :   -0.302376
   7 H :    0.081887
   8 H :    0.104662
   9 H :    0.019812
  10 H :    0.032089
  11 H :    0.033002
  12 H :    0.033217
  13 H :   -0.009864
  14 H :    0.028578
  15 H :    0.022813
Sum of atomic charges:   -0.0000000

LOEWDIN ATOMIC CHARGES
----------------------
   0 N :   -0.068139
   1 C :   -0.034691
   2 C :   -0.057560
   3 C :   -0.041016
   4 C :    0.044711
   5 C :    0.057525
   6 O :   -0.161700
   7 H :    0.054505
   8 H :    0.059161
   9 H :    0.023119
  10 H :    0.025736
  11 H :    0.027848
  12 H :    0.028136
  13 H :    0.014591
  14 H :    0.015042
  15 H :    0.012732

  Mayer bond orders larger than 0.1
B(  0-N ,  1-C ) :   1.1204 B(  0-N ,  7-H ) :   0.9502 B(  0-N ,  8-H ) :   0.9546
B(  1-C ,  2-C ) :   0.9412 B(  1-C ,  3-C ) :   0.9612 B(  1-C ,  4-C ) :   1.0157
B(  2-C ,  3-C ) :   1.0198 B(  2-C ,  9-H ) :   0.9404 B(  2-C , 10-H ) :   0.9395
B(  3-C , 11-H ) :   0.9455 B(  3-C , 12-H ) :   0.9406 B(  4-C ,  5-C ) :   1.0885
B(  4-C ,  6-O ) :   0.9857 B(  4-C , 13-H ) :   0.9222 B(  5-C ,  6-O ) :   0.9901
B(  5-C , 14-H ) :   0.9143 B(  5-C , 15-H ) :   0.9337

FINAL SINGLE POINT ENERGY      -325.200761360407

DIPOLE MOMENT
-------------
                                X             Y             Z
Electronic contribution:     -1.03815      -1.04785       3.19858
Nuclear contribution   :      1.17595       1.25614      -3.81851
                        -----------------------------------------
Total Dipole Moment    :      0.13779       0.20829      -0.61993
                        -----------------------------------------
Magnitude (a.u.)       :      0.66835
Magnitude (Debye)      :      1.69880

                             ****ORCA TERMINATED NORMALLY****
TOTAL RUN TIME: 0 days 0 hours 0 minutes 7 seconds 17 msec
