                         Program Version 3.0.3 - RELEASE   -
|  1> ! RI PBE def2-SVP def2-SVP/J NBO PAL2
|  2> % maxcore 2000
|  3> % output
|  4>     # printlevel mini
|  5>     print[ P_Basis ] 0
|  6>     print[ P_SCFInfo ] 1
|  7>     print[ P_SCFIterInfo ] 1
|  8>     print[ P_OrbEn ] 0
|  9>     print[ P_Cartesian ] 0
| 10> end
| 11> *xyz 0 1
| 12>  N        0.9034680000     0.6781130000    -0.5231670000
| 13>  C        2.2540400000     0.3052770000    -0.2143090000
| 14>  C        2.9641580000    -0.8962050000    -0.7733290000
| 15>  C        3.3204640000     0.4924100000    -1.2401210000
| 16>  C        4.6185640000     1.1617710000    -0.8840010000
| 17>  C        4.5062920000     2.6778360000    -0.9433450000
| 18>  O        3.5583920000     3.2025580000    -0.0418650000
| 19>  H        0.2424230000     0.1302260000     0.0149800000
| 20>  H        0.6991000000     0.5170940000    -1.5017640000
| 21>  H        2.5332410000     0.5812560000     0.7979110000
| 22>  H        2.4195170000    -1.5286640000    -1.4651290000
| 23>  H        3.6712750000    -1.4210860000    -0.1403210000
| 24>  H        2.9509910000     0.7404500000    -2.2344990000
| 25>  H        5.4132930000     0.8388880000    -1.5669860000
| 26>  H        4.9219060000     0.8622990000     0.1250510000
| 27>  H        4.2765670000     2.9867800000    -1.9747960000
| 28>  H        5.4624100000     3.1348120000    -0.6767270000
| 29>  H        2.7005190000     2.8124850000    -0.2406950000
| 30> *
| 31>
| 32>                          ****END OF INPUT****
 Total Charge           Charge          ....    0
 Multiplicity           Mult            ....    1
 Number of Electrons    NEL             ....   56
 Basis Dimension        Dim             ....  153

MULLIKEN ATOMIC CHARGES
-----------------------
   0 N :   -0.129867
   1 C :   -0.101490
   2 C :    0.042177
   3 C :   -0.180775
   4 C :    0.077535
   5 C :    0.185173
   6 O :   -0.296966
   7 H :    0.099040
   8 H :    0.079574
   9 H :    0.029163
  10 H :    0.008997
  11 H :    0.020740
  12 H :    0.011955
  13 H :    0.005000
  14 H :   -0.003115
  15 H :   -0.013145
  16 H :    0.004635
  17 H :    0.161369
Sum of atomic charges:    0.0000000

LOEWDIN ATOMIC CHARGES
----------------------
   0 N :   -0.086746
   1 C :   -0.017571
   2 C :   -0.064458
   3 C :   -0.057175
   4 C :   -0.053053
   5 C :    0.058851
   6 O :   -0.123196
   7 H :    0.058734
   8 H :    0.052322
   9 H :    0.021900
  10 H :    0.022511
  11 H :    0.025604
  12 H :    0.022806
  13 H :    0.028420
  14 H :    0.026098
  15 H :    0.000679
  16 H :    0.018910
  17 H :    0.065364

  Mayer bond orders larger than 0.1
B(  0-N ,  1-C ) :   1.1149 B(  0-N ,  7-H ) :   0.9646 B(  0-N ,  8-H ) :   0.9555
B(  1-C ,  2-C ) :   0.9816 B(  1-C ,  3-C ) :   0.9412 B(  1-C ,  9-H ) :   0.9341
B(  2-C ,  3-C ) :   0.9854 B(  2-C , 10-H ) :   0.9277 B(  2-C , 11-H ) :   0.9286
B(  3-C ,  4-C ) :   1.0756 B(  3-C , 12-H ) :   0.9393 B(  4-C ,  5-C ) :   1.0680
B(  4-C , 13-H ) :   0.9087 B(  4-C , 14-H ) :   0.9098 B(  5-C ,  6-O ) :   1.0742
B(  5-C , 15-H ) :   0.9347 B(  5-C , 16-H ) :   0.9375 B(  6-O , 17-H ) :   0.9742

FINAL SINGLE POINT ENERGY      -326.428719425848

DIPOLE MOMENT
-------------
                                X             Y             Z
Electronic contribution:     -1.03627       1.81318       1.12772
Nuclear contribution   :      0.72854      -2.68853      -1.60855
                        -----------------------------------------
Total Dipole Moment    :     -0.30773      -0.87536      -0.48084
                        -----------------------------------------
Magnitude (a.u.)       :      1.04506
Magnitude (Debye)      :      2.65634

                             ****ORCA TERMINATED NORMALLY****
TOTAL RUN TIME: 0 days 0 hours 0 minutes 7 seconds 890 msec
