                         Program Version 3.0.3 - RELEASE   -
|  1> ! RI PBE def2-SVP def2-SVP/J NBO PAL2
|  2> % maxcore 2000
|  3> % output
|  4>     # printlevel mini
|  5>     print[ P_Basis ] 0
|  6>     print[ P_SCFInfo ] 1
|  7>     print[ P_SCFIterInfo ] 1
|  8>     print[ P_OrbEn ] 0
|  9>     print[ P_Cartesian ] 0
| 10> end
| 11> *xyz 0 1
| 12>  N        1.3154900000    -0.0847420000     0.3563490000
| 13>  C        2.6948320000     0.0047490000    -0.0185310000
| 14>  C        3.2571020000    -0.5631580000    -1.2864470000
| 15>  C        3.0926790000     0.9252710000    -1.1407620000
| 16>  C        4.2537960000     1.8128540000    -0.9873270000
| 17>  N        5.4354020000     1.3569780000    -1.0167300000
| 18>  O        6.3737970000     2.3518810000    -0.7934750000
| 19>  H        1.1189160000    -0.9920040000     0.7634060000
| 20>  H        0.7160800000     0.0115680000    -0.4544100000
| 21>  H        3.3646710000     0.0150370000     0.8350100000
| 22>  H        2.5675810000    -1.0654020000    -1.9551870000
| 23>  H        4.2695250000    -0.9463510000    -1.2865000000
| 24>  H        2.2586650000     1.3781740000    -1.6691840000
| 25>  H        4.0813690000     2.8779180000    -0.8184020000
| 26>  H        7.2083960000     1.8808470000    -0.8627190000
| 27> *
| 28>
| 29>                          ****END OF INPUT****
 Total Charge           Charge          ....    0
 Multiplicity           Mult            ....    1
 Number of Electrons    NEL             ....   54
 Basis Dimension        Dim             ....  138

MULLIKEN ATOMIC CHARGES
-----------------------
   0 N :   -0.119799
   1 C :   -0.074375
   2 C :    0.044187
   3 C :   -0.079240
   4 C :    0.017261
   5 N :   -0.052431
   6 O :   -0.177599
   7 H :    0.095948
   8 H :    0.078904
   9 H :    0.032629
  10 H :    0.012639
  11 H :    0.035968
  12 H :    0.019800
  13 H :   -0.002524
  14 H :    0.168631
Sum of atomic charges:   -0.0000000

LOEWDIN ATOMIC CHARGES
----------------------
   0 N :   -0.083216
   1 C :    0.010965
   2 C :   -0.056392
   3 C :   -0.059601
   4 C :   -0.030963
   5 N :   -0.024206
   6 O :   -0.057033
   7 H :    0.058220
   8 H :    0.052140
   9 H :    0.026254
  10 H :    0.023399
  11 H :    0.028527
  12 H :    0.031600
  13 H :    0.008408
  14 H :    0.071898

  Mayer bond orders larger than 0.1
B(  0-N ,  1-C ) :   1.1430 B(  0-N ,  7-H ) :   0.9648 B(  0-N ,  8-H ) :   0.9564
B(  1-C ,  2-C ) :   0.9846 B(  1-C ,  3-C ) :   0.9220 B(  1-C ,  9-H ) :   0.9367
B(  2-C ,  3-C ) :   0.9764 B(  2-C , 10-H ) :   0.9273 B(  2-C , 11-H ) :   0.9176
B(  3-C ,  4-C ) :   1.0631 B(  3-C , 12-H ) :   0.9268 B(  4-C ,  5-N ) :   1.8972
B(  4-C ,  6-O ) :   0.1094 B(  4-C , 13-H ) :   0.9451 B(  5-N ,  6-O ) :   0.9859
B(  6-O , 14-H ) :   0.9768

FINAL SINGLE POINT ENERGY      -341.206001162555

DIPOLE MOMENT
-------------
                                X             Y             Z
Electronic contribution:      4.42208       2.89171      -0.23737
Nuclear contribution   :     -4.60345      -3.37355       0.03896
                        -----------------------------------------
Total Dipole Moment    :     -0.18137      -0.48183      -0.19841
                        -----------------------------------------
Magnitude (a.u.)       :      0.55175
Magnitude (Debye)      :      1.40242

                             ****ORCA TERMINATED NORMALLY****
TOTAL RUN TIME: 0 days 0 hours 0 minutes 6 seconds 842 msec
