                         Program Version 3.0.3 - RELEASE   -
|  1> ! RI PBE def2-SVP def2-SVP/J NBO PAL2
|  2> % maxcore 2000
|  3> % output
|  4>     # printlevel mini
|  5>     print[ P_Basis ] 0
|  6>     print[ P_SCFInfo ] 1
|  7>     print[ P_SCFIterInfo ] 1
|  8>     print[ P_OrbEn ] 0
|  9>     print[ P_Cartesian ] 0
| 10> end
| 11> *xyz 0 1
| 12>  N        1.0334840000     0.0880800000     0.0100480000
| 13>  C        2.4554310000    -0.0372400000     0.0983750000
| 14>  C        3.2770310000    -0.8771480000    -0.8275440000
| 15>  C        3.3074820000     0.6313750000    -0.9389760000
| 16>  C        4.5129660000     1.4417510000    -0.6036430000
| 17>  N        5.2896440000     1.0007730000     0.4216580000
| 18>  O        4.7913340000     2.4432670000    -1.2308860000
| 19>  H        0.5733220000    -0.7821360000     0.2466940000
| 20>  H        0.7422130000     0.3507000000    -0.9219530000
| 21>  H        2.8168850000     0.0430330000     1.1201860000
| 22>  H        2.7622010000    -1.4078640000    -1.6193990000
| 23>  H        4.1628750000    -1.3766790000    -0.4519590000
| 24>  H        2.7807780000     1.0625570000    -1.7819240000
| 25>  H        5.0404530000     0.2210710000     1.0002390000
| 26>  H        6.0716110000     1.5716510000     0.6898840000
| 27> *
| 28>
| 29>                          ****END OF INPUT****
 Total Charge           Charge          ....    0
 Multiplicity           Mult            ....    1
 Number of Electrons    NEL             ....   54
 Basis Dimension        Dim             ....  138

MULLIKEN ATOMIC CHARGES
-----------------------
   0 N :   -0.121119
   1 C :   -0.070642
   2 C :    0.029567
   3 C :   -0.135956
   4 C :    0.068923
   5 N :   -0.074542
   6 O :   -0.197384
   7 H :    0.098855
   8 H :    0.084094
   9 H :    0.018218
  10 H :    0.026462
  11 H :    0.024335
  12 H :    0.025558
  13 H :    0.104254
  14 H :    0.119377
Sum of atomic charges:   -0.0000000

LOEWDIN ATOMIC CHARGES
----------------------
   0 N :   -0.079982
   1 C :    0.001463
   2 C :   -0.055324
   3 C :   -0.066250
   4 C :    0.031409
   5 N :    0.006633
   6 O :   -0.192755
   7 H :    0.057613
   8 H :    0.055289
   9 H :    0.015896
  10 H :    0.028478
  11 H :    0.021098
  12 H :    0.038097
  13 H :    0.063668
  14 H :    0.074667

  Mayer bond orders larger than 0.1
B(  0-N ,  1-C ) :   1.1713 B(  0-N ,  7-H ) :   0.9670 B(  0-N ,  8-H ) :   0.9591
B(  1-C ,  2-C ) :   0.9663 B(  1-C ,  3-C ) :   0.8933 B(  1-C ,  9-H ) :   0.9407
B(  2-C ,  3-C ) :   0.9298 B(  2-C , 10-H ) :   0.9336 B(  2-C , 11-H ) :   0.9364
B(  3-C ,  4-C ) :   0.9819 B(  3-C , 12-H ) :   0.9331 B(  4-C ,  5-N ) :   1.2426
B(  4-C ,  6-O ) :   2.1244 B(  5-N , 13-H ) :   0.9393 B(  5-N , 14-H ) :   0.9377

FINAL SINGLE POINT ENERGY      -341.287647452163

DIPOLE MOMENT
-------------
                                X             Y             Z
Electronic contribution:      2.87214       3.96455      -0.93370
Nuclear contribution   :     -3.05148      -5.36633       1.58144
                        -----------------------------------------
Total Dipole Moment    :     -0.17934      -1.40178       0.64774
                        -----------------------------------------
Magnitude (a.u.)       :      1.55458
Magnitude (Debye)      :      3.95142

                             ****ORCA TERMINATED NORMALLY****
TOTAL RUN TIME: 0 days 0 hours 0 minutes 7 seconds 55 msec
