                         Program Version 3.0.3 - RELEASE   -
|  1> ! RI PBE def2-SVP def2-SVP/J NBO PAL2
|  2> % maxcore 2000
|  3> % output
|  4>     # printlevel mini
|  5>     print[ P_Basis ] 0
|  6>     print[ P_SCFInfo ] 1
|  7>     print[ P_SCFIterInfo ] 1
|  8>     print[ P_OrbEn ] 0
|  9>     print[ P_Cartesian ] 0
| 10> end
| 11> *xyz 0 1
| 12>  N        1.0987550000    -0.0375850000    -0.0915910000
| 13>  C        2.5275300000    -0.1141710000    -0.0851370000
| 14>  C        3.3375160000    -0.7879340000    -1.1383180000
| 15>  C        3.2888190000     0.7274710000    -1.0723990000
| 16>  C        4.4642290000     1.5101120000    -0.6542390000
| 17>  O        5.2199970000     0.8753350000     0.2659310000
| 18>  O        4.7461010000     2.6025920000    -1.0704760000
| 19>  H        0.6964830000    -0.9047290000     0.2441110000
| 20>  H        0.7434380000     0.1177130000    -1.0268350000
| 21>  H        2.9466080000    -0.1319370000     0.9146130000
| 22>  H        2.8144710000    -1.2393130000    -1.9729950000
| 23>  H        4.2685580000    -1.2627790000    -0.8564650000
| 24>  H        2.7057520000     1.2386970000    -1.8278950000
| 25>  H        5.9489450000     1.4752380000     0.4738860000
| 26> *
| 27>
| 28>                          ****END OF INPUT****
 Total Charge           Charge          ....    0
 Multiplicity           Mult            ....    1
 Number of Electrons    NEL             ....   54
 Basis Dimension        Dim             ....  133

MULLIKEN ATOMIC CHARGES
-----------------------
   0 N :   -0.116032
   1 C :   -0.056828
   2 C :    0.045933
   3 C :   -0.155978
   4 C :    0.127546
   5 O :   -0.149780
   6 O :   -0.177742
   7 H :    0.099608
   8 H :    0.080782
   9 H :    0.039254
  10 H :    0.023972
  11 H :    0.040512
  12 H :    0.031871
  13 H :    0.166883
Sum of atomic charges:   -0.0000000

LOEWDIN ATOMIC CHARGES
----------------------
   0 N :   -0.079316
   1 C :    0.013746
   2 C :   -0.046140
   3 C :   -0.072418
   4 C :    0.042696
   5 O :   -0.024484
   6 O :   -0.158843
   7 H :    0.059773
   8 H :    0.053900
   9 H :    0.028105
  10 H :    0.027169
  11 H :    0.030774
  12 H :    0.039323
  13 H :    0.085716

  Mayer bond orders larger than 0.1
B(  0-N ,  1-C ) :   1.1580 B(  0-N ,  7-H ) :   0.9649 B(  0-N ,  8-H ) :   0.9550
B(  1-C ,  2-C ) :   0.9760 B(  1-C ,  3-C ) :   0.8948 B(  1-C ,  9-H ) :   0.9398
B(  2-C ,  3-C ) :   0.9280 B(  2-C , 10-H ) :   0.9331 B(  2-C , 11-H ) :   0.9315
B(  3-C ,  4-C ) :   1.0158 B(  3-C , 12-H ) :   0.9435 B(  4-C ,  5-O ) :   1.2399
B(  4-C ,  6-O ) :   2.1206 B(  5-O , 13-H ) :   0.9493

FINAL SINGLE POINT ENERGY      -361.135812145547

DIPOLE MOMENT
-------------
                                X             Y             Z
Electronic contribution:      4.19847       4.18468       0.37145
Nuclear contribution   :     -4.38950      -5.21231      -0.30861
                        -----------------------------------------
Total Dipole Moment    :     -0.19102      -1.02763       0.06284
                        -----------------------------------------
Magnitude (a.u.)       :      1.04712
Magnitude (Debye)      :      2.66156

                             ****ORCA TERMINATED NORMALLY****
TOTAL RUN TIME: 0 days 0 hours 0 minutes 6 seconds 714 msec
