                         Program Version 3.0.3 - RELEASE   -
|  1> ! RI PBE def2-SVP def2-SVP/J NBO PAL2
|  2> % maxcore 2000
|  3> % output
|  4>     # printlevel mini
|  5>     print[ P_Basis ] 0
|  6>     print[ P_SCFInfo ] 1
|  7>     print[ P_SCFIterInfo ] 1
|  8>     print[ P_OrbEn ] 0
|  9>     print[ P_Cartesian ] 0
| 10> end
| 11> *xyz 0 1
| 12>  N        1.1259490000     0.1293360000    -0.4154390000
| 13>  C        2.5334640000     0.0345080000    -0.1677240000
| 14>  C        3.3566530000    -0.7531510000    -1.1481890000
| 15>  C        3.4554410000     0.7462890000    -1.1151960000
| 16>  N        2.8412910000     1.5650940000    -2.1217130000
| 17>  C        4.6960750000     1.3918780000    -0.5574490000
| 18>  O        4.4332140000     2.7134950000    -0.1621750000
| 19>  H        0.6970010000     0.8235510000     0.1833130000
| 20>  H        0.6604990000    -0.7537610000    -0.2513570000
| 21>  H        2.8682850000     0.0030960000     0.8683160000
| 22>  H        2.8238850000    -1.1864710000    -1.9869260000
| 23>  H        4.1791500000    -1.3477000000    -0.7670570000
| 24>  H        1.8462180000     1.3649690000    -2.1478560000
| 25>  H        3.2292850000     1.3801600000    -3.0386220000
| 26>  H        5.4956810000     1.3606270000    -1.3159560000
| 27>  H        5.0540650000     0.8392670000     0.3164130000
| 28>  H        3.8164340000     3.0437220000    -0.8321920000
| 29> *
| 30>
| 31>                          ****END OF INPUT****
 Total Charge           Charge          ....    0
 Multiplicity           Mult            ....    1
 Number of Electrons    NEL             ....   56
 Basis Dimension        Dim             ....  148

MULLIKEN ATOMIC CHARGES
-----------------------
   0 N :   -0.150717
   1 C :   -0.051760
   2 C :    0.033603
   3 C :   -0.277032
   4 N :   -0.121180
   5 C :    0.320249
   6 O :   -0.284905
   7 H :    0.104649
   8 H :    0.103552
   9 H :    0.017216
  10 H :    0.012104
  11 H :    0.022480
  12 H :    0.079571
  13 H :    0.097154
  14 H :   -0.019946
  15 H :   -0.021391
  16 H :    0.136351
Sum of atomic charges:   -0.0000000

LOEWDIN ATOMIC CHARGES
----------------------
   0 N :   -0.077898
   1 C :   -0.009251
   2 C :   -0.059540
   3 C :   -0.056406
   4 N :   -0.067173
   5 C :    0.059561
   6 O :   -0.130687
   7 H :    0.062169
   8 H :    0.059388
   9 H :    0.009725
  10 H :    0.025339
  11 H :    0.026275
  12 H :    0.042518
  13 H :    0.056789
  14 H :   -0.000329
  15 H :    0.014024
  16 H :    0.045496

  Mayer bond orders larger than 0.1
B(  0-N ,  1-C ) :   1.1585 B(  0-N ,  7-H ) :   0.9665 B(  0-N ,  8-H ) :   0.9625
B(  1-C ,  2-C ) :   0.9922 B(  1-C ,  3-C ) :   0.8787 B(  1-C ,  9-H ) :   0.9349
B(  2-C ,  3-C ) :   0.9607 B(  2-C , 10-H ) :   0.9215 B(  2-C , 11-H ) :   0.9322
B(  3-C ,  4-N ) :   1.1359 B(  3-C ,  5-C ) :   1.0374 B(  4-N , 12-H ) :   0.9252
B(  4-N , 13-H ) :   0.9613 B(  4-N , 16-H ) :   0.1069 B(  5-C ,  6-O ) :   1.1082
B(  5-C , 14-H ) :   0.9111 B(  5-C , 15-H ) :   0.9071 B(  6-O , 16-H ) :   0.9530

FINAL SINGLE POINT ENERGY      -342.457078831276

DIPOLE MOMENT
-------------
                                X             Y             Z
Electronic contribution:      0.40633       2.15781       0.54324
Nuclear contribution   :     -1.17132      -3.03316      -0.78210
                        -----------------------------------------
Total Dipole Moment    :     -0.76499      -0.87535      -0.23885
                        -----------------------------------------
Magnitude (a.u.)       :      1.18680
Magnitude (Debye)      :      3.01661

                             ****ORCA TERMINATED NORMALLY****
TOTAL RUN TIME: 0 days 0 hours 0 minutes 7 seconds 596 msec
