                         Program Version 3.0.3 - RELEASE   -
|  1> ! RI PBE def2-SVP def2-SVP/J NBO PAL2
|  2> % maxcore 2000
|  3> % output
|  4>     # printlevel mini
|  5>     print[ P_Basis ] 0
|  6>     print[ P_SCFInfo ] 1
|  7>     print[ P_SCFIterInfo ] 1
|  8>     print[ P_OrbEn ] 0
|  9>     print[ P_Cartesian ] 0
| 10> end
| 11> *xyz 0 1
| 12>  N        0.8331930000     0.2806200000    -0.0425990000
| 13>  C        2.1811750000    -0.1955560000     0.0070480000
| 14>  C        2.8310480000    -1.0169390000    -1.0730020000
| 15>  C        3.2087680000     0.4270220000    -0.8768340000
| 16>  N        4.4948450000     0.7398500000    -0.3573610000
| 17>  C        4.7132910000     1.6117890000     0.6581240000
| 18>  O        5.8044790000     1.9743280000     1.0279110000
| 19>  H        0.1781770000    -0.4718460000     0.1317010000
| 20>  H        0.6129170000     0.6683300000    -0.9510440000
| 21>  H        2.5181590000    -0.4140530000     1.0146180000
| 22>  H        2.2489380000    -1.2565750000    -1.9546390000
| 23>  H        3.5570520000    -1.7649930000    -0.7777010000
| 24>  H        2.8236180000     1.1169080000    -1.6268550000
| 25>  H        5.3137870000     0.4423190000    -0.8673300000
| 26>  H        3.7717420000     1.9503770000     1.1292340000
| 27> *
| 28>
| 29>                          ****END OF INPUT****
 Total Charge           Charge          ....    0
 Multiplicity           Mult            ....    1
 Number of Electrons    NEL             ....   54
 Basis Dimension        Dim             ....  138

MULLIKEN ATOMIC CHARGES
-----------------------
   0 N :   -0.117680
   1 C :   -0.073119
   2 C :    0.037820
   3 C :   -0.055188
   4 N :   -0.091669
   5 C :    0.117014
   6 O :   -0.225389
   7 H :    0.100851
   8 H :    0.080920
   9 H :    0.035885
  10 H :    0.017826
  11 H :    0.030268
  12 H :    0.036588
  13 H :    0.115535
  14 H :   -0.009662
Sum of atomic charges:   -0.0000000

LOEWDIN ATOMIC CHARGES
----------------------
   0 N :   -0.080424
   1 C :   -0.003191
   2 C :   -0.064895
   3 C :   -0.003634
   4 N :    0.004202
   5 C :    0.052233
   6 O :   -0.182151
   7 H :    0.059994
   8 H :    0.052951
   9 H :    0.027793
  10 H :    0.025686
  11 H :    0.029943
  12 H :    0.019325
  13 H :    0.073839
  14 H :   -0.011669

  Mayer bond orders larger than 0.1
B(  0-N ,  1-C ) :   1.1546 B(  0-N ,  7-H ) :   0.9654 B(  0-N ,  8-H ) :   0.9561
B(  1-C ,  2-C ) :   0.9551 B(  1-C ,  3-C ) :   0.9454 B(  1-C ,  9-H ) :   0.9402
B(  2-C ,  3-C ) :   0.9861 B(  2-C , 10-H ) :   0.9318 B(  2-C , 11-H ) :   0.9320
B(  3-C ,  4-N ) :   1.0348 B(  3-C , 12-H ) :   0.9389 B(  4-N ,  5-C ) :   1.1876
B(  4-N , 13-H ) :   0.9201 B(  5-C ,  6-O ) :   2.0681 B(  5-C , 14-H ) :   0.9207

FINAL SINGLE POINT ENERGY      -341.274899223689

DIPOLE MOMENT
-------------
                                X             Y             Z
Electronic contribution:      4.86960       2.93384       1.89926
Nuclear contribution   :     -6.03945      -3.92972      -3.00689
                        -----------------------------------------
Total Dipole Moment    :     -1.16985      -0.99589      -1.10763
                        -----------------------------------------
Magnitude (a.u.)       :      1.89399
Magnitude (Debye)      :      4.81413

                             ****ORCA TERMINATED NORMALLY****
TOTAL RUN TIME: 0 days 0 hours 0 minutes 6 seconds 949 msec
