                         Program Version 3.0.3 - RELEASE   -
|  1> ! RI PBE def2-SVP def2-SVP/J NBO PAL2
|  2> % maxcore 2000
|  3> % output
|  4>     # printlevel mini
|  5>     print[ P_Basis ] 0
|  6>     print[ P_SCFInfo ] 1
|  7>     print[ P_SCFIterInfo ] 1
|  8>     print[ P_OrbEn ] 0
|  9>     print[ P_Cartesian ] 0
| 10> end
| 11> *xyz 0 1
| 12>  N        0.4855120000     0.3622400000    -0.3068510000
| 13>  C        1.6091570000    -0.4995200000    -0.0956990000
| 14>  C        2.2531040000    -1.3399530000    -1.1785180000
| 15>  C        2.9411990000    -0.1309240000    -0.6464790000
| 16>  O        4.0916270000    -0.3431060000     0.1107040000
| 17>  C        4.2911330000     0.5510080000     1.1112650000
| 18>  C        5.4280720000     0.6153030000     1.7882130000
| 19>  H       -0.3565180000    -0.1740810000    -0.4779240000
| 20>  H        0.6283980000     0.9613500000    -1.1097730000
| 21>  H        1.6389110000    -0.9391060000     0.8963340000
| 22>  H        1.8514070000    -1.2862760000    -2.1834610000
| 23>  H        2.6646090000    -2.2997530000    -0.8908530000
| 24>  H        2.9920640000     0.7476870000    -1.2888960000
| 25>  H        3.4424220000     1.1963110000     1.3275690000
| 26>  H        6.2615580000    -0.0367140000     1.5591580000
| 27>  H        5.5280470000     1.3272440000     2.5949110000
| 28> *
| 29>
| 30>                          ****END OF INPUT****
 Total Charge           Charge          ....    0
 Multiplicity           Mult            ....    1
 Number of Electrons    NEL             ....   54
 Basis Dimension        Dim             ....  143

MULLIKEN ATOMIC CHARGES
-----------------------
   0 N :   -0.122855
   1 C :   -0.092365
   2 C :    0.033532
   3 C :    0.044246
   4 O :   -0.231705
   5 C :    0.089285
   6 C :   -0.069645
   7 H :    0.097269
   8 H :    0.078255
   9 H :    0.034686
  10 H :    0.016786
  11 H :    0.038407
  12 H :    0.021020
  13 H :    0.012604
  14 H :    0.025768
  15 H :    0.024713
Sum of atomic charges:    0.0000000

LOEWDIN ATOMIC CHARGES
----------------------
   0 N :   -0.084525
   1 C :   -0.018412
   2 C :   -0.066395
   3 C :    0.033660
   4 O :   -0.059578
   5 C :    0.033446
   6 C :   -0.125477
   7 H :    0.057538
   8 H :    0.051534
   9 H :    0.027978
  10 H :    0.026229
  11 H :    0.035063
  12 H :    0.013087
  13 H :    0.016672
  14 H :    0.028060
  15 H :    0.031121

  Mayer bond orders larger than 0.1
B(  0-N ,  1-C ) :   1.1429 B(  0-N ,  7-H ) :   0.9656 B(  0-N ,  8-H ) :   0.9593
B(  1-C ,  2-C ) :   0.9549 B(  1-C ,  3-C ) :   0.9485 B(  1-C ,  9-H ) :   0.9341
B(  2-C ,  3-C ) :   0.9910 B(  2-C , 10-H ) :   0.9261 B(  2-C , 11-H ) :   0.9294
B(  3-C ,  4-O ) :   1.0424 B(  3-C , 12-H ) :   0.9398 B(  4-O ,  5-C ) :   1.0921
B(  5-C ,  6-C ) :   1.9320 B(  5-C , 13-H ) :   0.9450 B(  6-C , 14-H ) :   0.9472
B(  6-C , 15-H ) :   0.9383

FINAL SINGLE POINT ENERGY      -325.199714073820

DIPOLE MOMENT
-------------
                                X             Y             Z
Electronic contribution:      1.36288      -0.41679      -0.12113
Nuclear contribution   :     -2.04493       0.42807      -0.42413
                        -----------------------------------------
Total Dipole Moment    :     -0.68205       0.01129      -0.54526
                        -----------------------------------------
Magnitude (a.u.)       :      0.87329
Magnitude (Debye)      :      2.21972

                             ****ORCA TERMINATED NORMALLY****
TOTAL RUN TIME: 0 days 0 hours 0 minutes 6 seconds 967 msec
