                         Program Version 3.0.3 - RELEASE   -
|  1> ! RI PBE def2-SVP def2-SVP/J NBO PAL2
|  2> % maxcore 2000
|  3> % output
|  4>     # printlevel mini
|  5>     print[ P_Basis ] 0
|  6>     print[ P_SCFInfo ] 1
|  7>     print[ P_SCFIterInfo ] 1
|  8>     print[ P_OrbEn ] 0
|  9>     print[ P_Cartesian ] 0
| 10> end
| 11> *xyz 0 1
| 12>  N        0.9831720000     0.0348340000    -0.4773030000
| 13>  C        2.3818540000    -0.0742130000    -0.1777800000
| 14>  C        3.2237210000    -0.8818050000    -1.1331790000
| 15>  C        3.2830980000     0.6128050000    -1.1633990000
| 16>  O        2.6483330000     1.2832300000    -2.2050980000
| 17>  C        4.5044070000     1.3521170000    -0.7153350000
| 18>  O        4.1981470000     2.6675500000    -0.3182210000
| 19>  H        0.5289650000     0.7047280000     0.1298530000
| 20>  H        0.5017340000    -0.8502590000    -0.3890270000
| 21>  H        2.6881030000    -0.0730730000     0.8661820000
| 22>  H        2.7105050000    -1.3550140000    -1.9622950000
| 23>  H        4.0568360000    -1.4419510000    -0.7252230000
| 24>  H        1.7036030000     1.0790460000    -2.0911530000
| 25>  H        5.2443870000     1.3491040000    -1.5292140000
| 26>  H        4.9515580000     0.8461640000     0.1439430000
| 27>  H        3.6447650000     3.0312490000    -1.0182410000
| 28> *
| 29>
| 30>                          ****END OF INPUT****
 Total Charge           Charge          ....    0
 Multiplicity           Mult            ....    1
 Number of Electrons    NEL             ....   56
 Basis Dimension        Dim             ....  143

MULLIKEN ATOMIC CHARGES
-----------------------
   0 N :   -0.166339
   1 C :   -0.085474
   2 C :    0.018595
   3 C :   -0.112235
   4 O :   -0.230961
   5 C :    0.307716
   6 O :   -0.288192
   7 H :    0.109121
   8 H :    0.111840
   9 H :    0.019011
  10 H :    0.020472
  11 H :    0.027305
  12 H :    0.136911
  13 H :    0.001560
  14 H :   -0.015671
  15 H :    0.146342
Sum of atomic charges:    0.0000000

LOEWDIN ATOMIC CHARGES
----------------------
   0 N :   -0.066295
   1 C :   -0.025539
   2 C :   -0.060392
   3 C :   -0.017320
   4 O :   -0.094956
   5 C :    0.057305
   6 O :   -0.124518
   7 H :    0.064630
   8 H :    0.062176
   9 H :    0.010880
  10 H :    0.030701
  11 H :    0.028871
  12 H :    0.045818
  13 H :    0.009821
  14 H :    0.019891
  15 H :    0.058925

  Mayer bond orders larger than 0.1
B(  0-N ,  1-C ) :   1.1328 B(  0-N ,  7-H ) :   0.9659 B(  0-N ,  8-H ) :   0.9627
B(  0-N , 12-H ) :   0.1358 B(  1-C ,  2-C ) :   0.9814 B(  1-C ,  3-C ) :   0.8660
B(  1-C ,  9-H ) :   0.9367 B(  2-C ,  3-C ) :   0.9546 B(  2-C , 10-H ) :   0.9129
B(  2-C , 11-H ) :   0.9336 B(  3-C ,  4-O ) :   1.1599 B(  3-C ,  5-C ) :   1.0356
B(  4-O , 12-H ) :   0.9253 B(  5-C ,  6-O ) :   1.0858 B(  5-C , 13-H ) :   0.9160
B(  5-C , 14-H ) :   0.9118 B(  6-O , 15-H ) :   0.9712

FINAL SINGLE POINT ENERGY      -362.298470303479

DIPOLE MOMENT
-------------
                                X             Y             Z
Electronic contribution:      0.12346       2.61615      -0.97087
Nuclear contribution   :     -0.99437      -3.36096       1.35529
                        -----------------------------------------
Total Dipole Moment    :     -0.87091      -0.74481       0.38442
                        -----------------------------------------
Magnitude (a.u.)       :      1.20872
Magnitude (Debye)      :      3.07231

                             ****ORCA TERMINATED NORMALLY****
TOTAL RUN TIME: 0 days 0 hours 0 minutes 7 seconds 222 msec
