                         Program Version 3.0.3 - RELEASE   -
|  1> ! RI PBE def2-SVP def2-SVP/J NBO PAL2
|  2> % maxcore 2000
|  3> % output
|  4>     # printlevel mini
|  5>     print[ P_Basis ] 0
|  6>     print[ P_SCFInfo ] 1
|  7>     print[ P_SCFIterInfo ] 1
|  8>     print[ P_OrbEn ] 0
|  9>     print[ P_Cartesian ] 0
| 10> end
| 11> *xyz 0 1
| 12>  N        0.7474740000    -0.2118680000    -0.6060840000
| 13>  C        2.1019090000    -0.2340230000    -0.1459260000
| 14>  C        3.2617960000    -0.8346550000    -0.9161320000
| 15>  C        3.1062230000     0.6455680000    -0.7749680000
| 16>  O        3.9715330000     1.3336760000     0.1013240000
| 17>  C        4.9462690000     2.0424720000    -0.4734160000
| 18>  O        5.1354680000     2.1596320000    -1.6472170000
| 19>  H        0.3425180000    -1.1396700000    -0.5796090000
| 20>  H        0.6866950000     0.1179870000    -1.5605900000
| 21>  H        2.1894730000    -0.3153550000     0.9329370000
| 22>  H        3.0767910000    -1.2578720000    -1.8964860000
| 23>  H        4.0489290000    -1.3103470000    -0.3438230000
| 24>  H        2.8387250000     1.2218710000    -1.6528740000
| 25>  H        5.5502080000     2.5178750000     0.3129660000
| 26> *
| 27>
| 28>                          ****END OF INPUT****
 Total Charge           Charge          ....    0
 Multiplicity           Mult            ....    1
 Number of Electrons    NEL             ....   54
 Basis Dimension        Dim             ....  133

MULLIKEN ATOMIC CHARGES
-----------------------
   0 N :   -0.117049
   1 C :   -0.089249
   2 C :    0.008192
   3 C :    0.067924
   4 O :   -0.213215
   5 C :    0.215150
   6 O :   -0.201325
   7 H :    0.099054
   8 H :    0.080275
   9 H :    0.041893
  10 H :    0.026718
  11 H :    0.037327
  12 H :    0.037299
  13 H :    0.007006
Sum of atomic charges:    0.0000000

LOEWDIN ATOMIC CHARGES
----------------------
   0 N :   -0.080766
   1 C :   -0.009951
   2 C :   -0.069242
   3 C :    0.044957
   4 O :   -0.043643
   5 C :    0.074049
   6 O :   -0.137466
   7 H :    0.058627
   8 H :    0.053400
   9 H :    0.031055
  10 H :    0.028631
  11 H :    0.033405
  12 H :    0.021643
  13 H :   -0.004698

  Mayer bond orders larger than 0.1
B(  0-N ,  1-C ) :   1.1637 B(  0-N ,  7-H ) :   0.9660 B(  0-N ,  8-H ) :   0.9582
B(  1-C ,  2-C ) :   0.9516 B(  1-C ,  3-C ) :   0.9456 B(  1-C ,  9-H ) :   0.9306
B(  2-C ,  3-C ) :   0.9978 B(  2-C , 10-H ) :   0.9349 B(  2-C , 11-H ) :   0.9274
B(  3-C ,  4-O ) :   0.9630 B(  3-C , 12-H ) :   0.9424 B(  4-O ,  5-C ) :   1.1753
B(  4-O ,  6-O ) :   0.1058 B(  5-C ,  6-O ) :   2.0521 B(  5-C , 13-H ) :   0.9368

FINAL SINGLE POINT ENERGY      -361.108669578576

DIPOLE MOMENT
-------------
                                X             Y             Z
Electronic contribution:      3.86542       4.13589       0.33547
Nuclear contribution   :     -4.24029      -4.81989      -0.22094
                        -----------------------------------------
Total Dipole Moment    :     -0.37487      -0.68400       0.11453
                        -----------------------------------------
Magnitude (a.u.)       :      0.78835
Magnitude (Debye)      :      2.00383

                             ****ORCA TERMINATED NORMALLY****
TOTAL RUN TIME: 0 days 0 hours 0 minutes 6 seconds 136 msec
