                         Program Version 3.0.3 - RELEASE   -
|  1> ! RI PBE def2-SVP def2-SVP/J NBO PAL2
|  2> % maxcore 2000
|  3> % output
|  4>     # printlevel mini
|  5>     print[ P_Basis ] 0
|  6>     print[ P_SCFInfo ] 1
|  7>     print[ P_SCFIterInfo ] 1
|  8>     print[ P_OrbEn ] 0
|  9>     print[ P_Cartesian ] 0
| 10> end
| 11> *xyz 0 1
| 12>  N        0.8924970000     0.0183870000     0.2489470000
| 13>  C        2.2956320000    -0.1164910000    -0.0028400000
| 14>  C        2.8876600000    -0.9323930000    -1.1326740000
| 15>  C        2.9043810000     0.5639490000    -1.1651390000
| 16>  O        4.0982470000     1.2433200000    -0.9174270000
| 17>  N        4.8518440000     1.3085020000    -2.0705480000
| 18>  C        5.9356270000     1.9318070000    -1.8847140000
| 19>  H        0.5082700000    -0.8466790000     0.6092030000
| 20>  H        0.3882740000     0.2412140000    -0.5994490000
| 21>  H        2.8997700000    -0.0848790000     0.8981410000
| 22>  H        2.2138180000    -1.4367490000    -1.8155420000
| 23>  H        3.8311900000    -1.4334350000    -0.9540460000
| 24>  H        2.2504770000     1.0696540000    -1.8712590000
| 25>  H        6.5881760000     2.0338550000    -2.7432870000
| 26>  H        6.2165470000     2.3529170000    -0.9202650000
| 27> *
| 28>
| 29>                          ****END OF INPUT****
 Total Charge           Charge          ....    0
 Multiplicity           Mult            ....    1
 Number of Electrons    NEL             ....   54
 Basis Dimension        Dim             ....  138

MULLIKEN ATOMIC CHARGES
-----------------------
   0 N :   -0.118419
   1 C :   -0.092786
   2 C :    0.007709
   3 C :    0.098987
   4 O :   -0.241797
   5 N :   -0.005438
   6 C :   -0.020610
   7 H :    0.097185
   8 H :    0.078981
   9 H :    0.036484
  10 H :    0.020020
  11 H :    0.032404
  12 H :    0.019356
  13 H :    0.056068
  14 H :    0.031856
Sum of atomic charges:    0.0000000

LOEWDIN ATOMIC CHARGES
----------------------
   0 N :   -0.082496
   1 C :   -0.010942
   2 C :   -0.077110
   3 C :    0.023313
   4 O :   -0.063532
   5 N :    0.013660
   6 C :   -0.046089
   7 H :    0.057353
   8 H :    0.051925
   9 H :    0.028635
  10 H :    0.025573
  11 H :    0.032284
  12 H :    0.012976
  13 H :    0.027902
  14 H :    0.006547

  Mayer bond orders larger than 0.1
B(  0-N ,  1-C ) :   1.1527 B(  0-N ,  7-H ) :   0.9662 B(  0-N ,  8-H ) :   0.9587
B(  1-C ,  2-C ) :   0.9576 B(  1-C ,  3-C ) :   0.9490 B(  1-C ,  9-H ) :   0.9342
B(  2-C ,  3-C ) :   0.9930 B(  2-C , 10-H ) :   0.9323 B(  2-C , 11-H ) :   0.9224
B(  3-C ,  4-O ) :   1.0201 B(  3-C , 12-H ) :   0.9477 B(  4-O ,  5-N ) :   0.9521
B(  4-O ,  6-C ) :   0.1130 B(  5-N ,  6-C ) :   1.9452 B(  6-C , 13-H ) :   0.9527
B(  6-C , 14-H ) :   0.9309

FINAL SINGLE POINT ENERGY      -341.187873325350

DIPOLE MOMENT
-------------
                                X             Y             Z
Electronic contribution:      1.99972       2.19895      -0.54755
Nuclear contribution   :     -2.09239      -2.54092       0.40277
                        -----------------------------------------
Total Dipole Moment    :     -0.09267      -0.34197      -0.14479
                        -----------------------------------------
Magnitude (a.u.)       :      0.38274
Magnitude (Debye)      :      0.97286

                             ****ORCA TERMINATED NORMALLY****
TOTAL RUN TIME: 0 days 0 hours 0 minutes 6 seconds 981 msec
