                         Program Version 3.0.3 - RELEASE   -
|  1> ! RI PBE def2-SVP def2-SVP/J NBO PAL2
|  2> % maxcore 2000
|  3> % output
|  4>     # printlevel mini
|  5>     print[ P_Basis ] 0
|  6>     print[ P_SCFInfo ] 1
|  7>     print[ P_SCFIterInfo ] 1
|  8>     print[ P_OrbEn ] 0
|  9>     print[ P_Cartesian ] 0
| 10> end
| 11> *xyz 0 1
| 12>  N        1.0360010000    -0.0388780000     0.0551980000
| 13>  C        2.4831610000    -0.0663470000     0.0474100000
| 14>  C        3.0604270000    -1.2104460000     0.9176170000
| 15>  C        3.8540290000    -0.3406980000     1.8964760000
| 16>  C        4.5673300000     0.6688140000     0.9887780000
| 17>  C        3.1011380000     1.0935330000     0.8486030000
| 18>  O        2.8925070000     0.6936390000     2.2236430000
| 19>  H        0.6597570000    -0.9236830000    -0.2614500000
| 20>  H        0.6848230000     0.6753290000    -0.5712330000
| 21>  H        2.9161940000    -0.0859980000    -0.9642030000
| 22>  H        3.6809010000    -1.9158780000     0.3617650000
| 23>  H        2.2651000000    -1.7509440000     1.4335140000
| 24>  H        4.3219070000    -0.8086030000     2.7617540000
| 25>  H        5.1081270000     0.3095230000     0.1104130000
| 26>  H        5.1490650000     1.3926200000     1.5570890000
| 27>  H        2.7817640000     2.1106080000     0.6216280000
| 28> *
| 29>
| 30>                          ****END OF INPUT****
 Total Charge           Charge          ....    0
 Multiplicity           Mult            ....    1
 Number of Electrons    NEL             ....   54
 Basis Dimension        Dim             ....  143

MULLIKEN ATOMIC CHARGES
-----------------------
   0 N :   -0.150896
   1 C :   -0.034015
   2 C :    0.198004
   3 C :   -0.023188
   4 C :    0.061561
   5 C :    0.063844
   6 O :   -0.319313
   7 H :    0.090183
   8 H :    0.085355
   9 H :   -0.014354
  10 H :    0.003276
  11 H :    0.007743
  12 H :   -0.000035
  13 H :    0.011687
  14 H :    0.027395
  15 H :   -0.007246
Sum of atomic charges:   -0.0000000

LOEWDIN ATOMIC CHARGES
----------------------
   0 N :   -0.093496
   1 C :   -0.010230
   2 C :   -0.043555
   3 C :    0.077214
   4 C :   -0.045174
   5 C :    0.070214
   6 O :   -0.165405
   7 H :    0.051651
   8 H :    0.050840
   9 H :   -0.002216
  10 H :    0.021739
  11 H :    0.027683
  12 H :    0.009373
  13 H :    0.013569
  14 H :    0.029490
  15 H :    0.008303

  Mayer bond orders larger than 0.1
B(  0-N ,  1-C ) :   1.0932 B(  0-N ,  7-H ) :   0.9623 B(  0-N ,  8-H ) :   0.9655
B(  1-C ,  2-C ) :   1.0795 B(  1-C ,  5-C ) :   0.9864 B(  1-C ,  9-H ) :   0.8678
B(  2-C ,  3-C ) :   1.0652 B(  2-C , 10-H ) :   0.8991 B(  2-C , 11-H ) :   0.8857
B(  3-C ,  4-C ) :   1.0196 B(  3-C ,  6-O ) :   0.9645 B(  3-C , 12-H ) :   0.9651
B(  4-C ,  5-C ) :   1.0278 B(  4-C , 13-H ) :   0.9335 B(  4-C , 14-H ) :   0.9203
B(  5-C ,  6-O ) :   1.0080 B(  5-C , 15-H ) :   0.9613

FINAL SINGLE POINT ENERGY      -325.215847330089

DIPOLE MOMENT
-------------
                                X             Y             Z
Electronic contribution:     -0.53099       1.61536       2.64940
Nuclear contribution   :      0.84813      -1.88909      -3.58636
                        -----------------------------------------
Total Dipole Moment    :      0.31714      -0.27373      -0.93696
                        -----------------------------------------
Magnitude (a.u.)       :      1.02635
Magnitude (Debye)      :      2.60878

                             ****ORCA TERMINATED NORMALLY****
TOTAL RUN TIME: 0 days 0 hours 0 minutes 6 seconds 663 msec
