                         Program Version 3.0.3 - RELEASE   -
|  1> ! RI PBE def2-SVP def2-SVP/J NBO PAL2
|  2> % maxcore 2000
|  3> % output
|  4>     # printlevel mini
|  5>     print[ P_Basis ] 0
|  6>     print[ P_SCFInfo ] 1
|  7>     print[ P_SCFIterInfo ] 1
|  8>     print[ P_OrbEn ] 0
|  9>     print[ P_Cartesian ] 0
| 10> end
| 11> *xyz 0 1
| 12>  N        1.5470580000     0.2015090000     0.9628590000
| 13>  C        2.5380400000    -0.1266060000    -0.0415810000
| 14>  C        2.4666220000    -1.5319090000    -0.6830830000
| 15>  C        3.0718400000    -1.3507860000    -2.0461050000
| 16>  O        4.2897060000    -0.6114300000    -2.0368130000
| 17>  C        3.0857010000     0.0737160000    -2.3721150000
| 18>  C        2.4913300000     0.8463480000    -1.2300120000
| 19>  H        1.6623050000    -0.3748870000     1.7870260000
| 20>  H        0.6108950000     0.0358290000     0.6109730000
| 21>  H        3.5171300000    -0.0261450000     0.4310130000
| 22>  H        1.4207960000    -1.8424020000    -0.7978440000
| 23>  H        2.9734120000    -2.2912670000    -0.0812910000
| 24>  H        3.0062780000    -2.1261070000    -2.8040860000
| 25>  H        3.0319270000     0.4422980000    -3.3921540000
| 26>  H        1.4518470000     1.0983120000    -1.4731410000
| 27>  H        3.0117230000     1.7813380000    -1.0132450000
| 28> *
| 29>
| 30>                          ****END OF INPUT****
 Total Charge           Charge          ....    0
 Multiplicity           Mult            ....    1
 Number of Electrons    NEL             ....   54
 Basis Dimension        Dim             ....  143

MULLIKEN ATOMIC CHARGES
-----------------------
   0 N :   -0.157370
   1 C :   -0.165542
   2 C :    0.174192
   3 C :   -0.004163
   4 O :   -0.278208
   5 C :    0.004460
   6 C :    0.179215
   7 H :    0.089207
   8 H :    0.082177
   9 H :    0.022575
  10 H :   -0.007259
  11 H :    0.013506
  12 H :    0.014605
  13 H :    0.010977
  14 H :   -0.001347
  15 H :    0.022976
Sum of atomic charges:    0.0000000

LOEWDIN ATOMIC CHARGES
----------------------
   0 N :   -0.090166
   1 C :    0.001689
   2 C :   -0.061745
   3 C :    0.040527
   4 O :   -0.156359
   5 C :    0.042655
   6 C :   -0.042064
   7 H :    0.052892
   8 H :    0.045681
   9 H :    0.027350
  10 H :    0.023600
  11 H :    0.026724
  12 H :    0.013650
  13 H :    0.013878
  14 H :    0.028572
  15 H :    0.033115

  Mayer bond orders larger than 0.1
B(  0-N ,  1-C ) :   1.1231 B(  0-N ,  7-H ) :   0.9668 B(  0-N ,  8-H ) :   0.9656
B(  1-C ,  2-C ) :   1.0075 B(  1-C ,  6-C ) :   1.0395 B(  1-C ,  9-H ) :   0.8993
B(  2-C ,  3-C ) :   1.0125 B(  2-C , 10-H ) :   0.9074 B(  2-C , 11-H ) :   0.9130
B(  3-C ,  4-O ) :   0.9942 B(  3-C ,  5-C ) :   1.0247 B(  3-C , 12-H ) :   0.9557
B(  4-O ,  5-C ) :   0.9840 B(  5-C ,  6-C ) :   1.0176 B(  5-C , 13-H ) :   0.9616
B(  6-C , 14-H ) :   0.9136 B(  6-C , 15-H ) :   0.9149

FINAL SINGLE POINT ENERGY      -325.237783026635

DIPOLE MOMENT
-------------
                                X             Y             Z
Electronic contribution:      3.21351      -0.31924      -2.39563
Nuclear contribution   :     -4.01226      -0.08579       2.40419
                        -----------------------------------------
Total Dipole Moment    :     -0.79875      -0.40503       0.00856
                        -----------------------------------------
Magnitude (a.u.)       :      0.89561
Magnitude (Debye)      :      2.27646

                             ****ORCA TERMINATED NORMALLY****
TOTAL RUN TIME: 0 days 0 hours 0 minutes 7 seconds 137 msec
