                         Program Version 3.0.3 - RELEASE   -
|  1> ! RI PBE def2-SVP def2-SVP/J NBO PAL2
|  2> % maxcore 2000
|  3> % output
|  4>     # printlevel mini
|  5>     print[ P_Basis ] 0
|  6>     print[ P_SCFInfo ] 1
|  7>     print[ P_SCFIterInfo ] 1
|  8>     print[ P_OrbEn ] 0
|  9>     print[ P_Cartesian ] 0
| 10> end
| 11> *xyz 0 1
| 12>  N        0.9540340000    -0.2613580000     0.1416750000
| 13>  C        2.3716740000    -0.0038330000     0.2064890000
| 14>  C        3.0348020000     1.1550650000     0.9856360000
| 15>  C        4.1871230000     0.1798240000     1.3059040000
| 16>  C        3.2110970000    -0.9821240000     1.0407830000
| 17>  C        3.6215530000    -2.2660120000     0.3692390000
| 18>  O        2.4896640000    -3.0490100000     0.0538550000
| 19>  H        0.4758160000     0.3893750000    -0.4688890000
| 20>  H        0.5293780000    -0.1929500000     1.0590570000
| 21>  H        2.7580630000    -0.0040310000    -0.8197720000
| 22>  H        2.4612760000     1.3933590000     1.8860340000
| 23>  H        3.2629690000     2.0799960000     0.4528410000
| 24>  H        4.6524350000     0.2395100000     2.2895030000
| 25>  H        4.9683650000     0.2232800000     0.5424800000
| 26>  H        2.6629520000    -1.2149770000     1.9625750000
| 27>  H        4.2632780000    -2.8720520000     1.0167290000
| 28>  H        4.2009850000    -2.0319210000    -0.5386890000
| 29>  H        1.7747470000    -2.4435200000    -0.1836500000
| 30> *
| 31>
| 32>                          ****END OF INPUT****
 Total Charge           Charge          ....    0
 Multiplicity           Mult            ....    1
 Number of Electrons    NEL             ....   56
 Basis Dimension        Dim             ....  153

MULLIKEN ATOMIC CHARGES
-----------------------
   0 N :   -0.138537
   1 C :   -0.107764
   2 C :    0.072777
   3 C :    0.050029
   4 C :   -0.207143
   5 C :    0.277237
   6 O :   -0.293051
   7 H :    0.098548
   8 H :    0.091592
   9 H :    0.005942
  10 H :   -0.007622
  11 H :    0.005770
  12 H :    0.012364
  13 H :    0.012349
  14 H :    0.001206
  15 H :    0.004787
  16 H :   -0.023458
  17 H :    0.144974
Sum of atomic charges:    0.0000000

LOEWDIN ATOMIC CHARGES
----------------------
   0 N :   -0.081739
   1 C :   -0.008758
   2 C :   -0.047171
   3 C :   -0.025716
   4 C :   -0.062408
   5 C :    0.057469
   6 O :   -0.129604
   7 H :    0.057973
   8 H :    0.053488
   9 H :    0.022494
  10 H :    0.019474
  11 H :    0.013302
  12 H :    0.018498
  13 H :    0.024608
  14 H :    0.023130
  15 H :    0.015943
  16 H :   -0.001435
  17 H :    0.050451

  Mayer bond orders larger than 0.1
B(  0-N ,  1-C ) :   1.1197 B(  0-N ,  7-H ) :   0.9610 B(  0-N ,  8-H ) :   0.9538
B(  1-C ,  2-C ) :   1.0438 B(  1-C ,  4-C ) :   1.0155 B(  1-C ,  9-H ) :   0.9032
B(  2-C ,  3-C ) :   1.1128 B(  2-C , 10-H ) :   0.9060 B(  2-C , 11-H ) :   0.9300
B(  3-C ,  4-C ) :   1.0483 B(  3-C , 12-H ) :   0.9298 B(  3-C , 13-H ) :   0.9207
B(  4-C ,  5-C ) :   1.0785 B(  4-C , 14-H ) :   0.8937 B(  5-C ,  6-O ) :   1.0845
B(  5-C , 15-H ) :   0.9322 B(  5-C , 16-H ) :   0.9056 B(  6-O , 17-H ) :   0.9623

FINAL SINGLE POINT ENERGY      -326.438143793473

DIPOLE MOMENT
-------------
                                X             Y             Z
Electronic contribution:     -1.40122      -2.79895      -0.77295
Nuclear contribution   :      1.16770       3.96548       0.92355
                        -----------------------------------------
Total Dipole Moment    :     -0.23352       1.16653       0.15060
                        -----------------------------------------
Magnitude (a.u.)       :      1.19917
Magnitude (Debye)      :      3.04804

                             ****ORCA TERMINATED NORMALLY****
TOTAL RUN TIME: 0 days 0 hours 0 minutes 8 seconds 192 msec
