                         Program Version 3.0.3 - RELEASE   -
|  1> ! RI PBE def2-SVP def2-SVP/J NBO PAL2
|  2> % maxcore 2000
|  3> % output
|  4>     # printlevel mini
|  5>     print[ P_Basis ] 0
|  6>     print[ P_SCFInfo ] 1
|  7>     print[ P_SCFIterInfo ] 1
|  8>     print[ P_OrbEn ] 0
|  9>     print[ P_Cartesian ] 0
| 10> end
| 11> *xyz 0 1
| 12>  N        1.3160490000     0.4134580000     0.6568270000
| 13>  C        2.3942860000    -0.1695490000    -0.1164780000
| 14>  C        2.2813360000    -1.6670780000    -0.4786480000
| 15>  C        3.0499230000    -1.8450260000    -1.7925470000
| 16>  C        2.9268670000    -0.4969150000    -2.4547560000
| 17>  O        1.6041880000     0.0319610000    -2.4253230000
| 18>  C        2.5477850000     0.4970690000    -1.4605110000
| 19>  H        1.2224180000    -0.0517830000     1.5512380000
| 20>  H        0.4392190000     0.2895840000     0.1626160000
| 21>  H        3.3274830000     0.0064220000     0.4341420000
| 22>  H        1.2263110000    -1.9032250000    -0.6317550000
| 23>  H        2.6504620000    -2.3129540000     0.3203750000
| 24>  H        2.6592990000    -2.6579260000    -2.4100680000
| 25>  H        4.1107560000    -2.0502070000    -1.6133970000
| 26>  H        3.5038340000    -0.2487350000    -3.3406440000
| 27>  H        2.8063640000     1.5491940000    -1.5275910000
| 28> *
| 29>
| 30>                          ****END OF INPUT****
 Total Charge           Charge          ....    0
 Multiplicity           Mult            ....    1
 Number of Electrons    NEL             ....   54
 Basis Dimension        Dim             ....  143

MULLIKEN ATOMIC CHARGES
-----------------------
   0 N :   -0.160028
   1 C :    0.013977
   2 C :   -0.000499
   3 C :    0.095114
   4 C :    0.013954
   5 O :   -0.278788
   6 C :    0.050106
   7 H :    0.089442
   8 H :    0.090223
   9 H :    0.007110
  10 H :    0.010883
  11 H :    0.005181
  12 H :    0.020696
  13 H :    0.017648
  14 H :    0.011660
  15 H :    0.013322
Sum of atomic charges:    0.0000000

LOEWDIN ATOMIC CHARGES
----------------------
   0 N :   -0.091756
   1 C :   -0.011381
   2 C :   -0.052845
   3 C :   -0.046228
   4 C :    0.044888
   5 O :   -0.158597
   6 C :    0.045422
   7 H :    0.052004
   8 H :    0.052690
   9 H :    0.026147
  10 H :    0.024246
  11 H :    0.022762
  12 H :    0.029828
  13 H :    0.031075
  14 H :    0.014933
  15 H :    0.016810

  Mayer bond orders larger than 0.1
B(  0-N ,  1-C ) :   1.1285 B(  0-N ,  7-H ) :   0.9677 B(  0-N ,  8-H ) :   0.9635
B(  1-C ,  2-C ) :   1.0178 B(  1-C ,  6-C ) :   0.9898 B(  1-C ,  9-H ) :   0.8974
B(  2-C ,  3-C ) :   1.0753 B(  2-C , 10-H ) :   0.9135 B(  2-C , 11-H ) :   0.9255
B(  3-C ,  4-C ) :   1.0218 B(  3-C , 12-H ) :   0.9202 B(  3-C , 13-H ) :   0.9188
B(  4-C ,  5-O ) :   0.9940 B(  4-C ,  6-C ) :   1.0182 B(  4-C , 14-H ) :   0.9560
B(  5-O ,  6-C ) :   0.9917 B(  6-C , 15-H ) :   0.9621

FINAL SINGLE POINT ENERGY      -325.238519157618

DIPOLE MOMENT
-------------
                                X             Y             Z
Electronic contribution:     -0.99005       2.52565      -2.62467
Nuclear contribution   :      1.42980      -3.04832       2.94704
                        -----------------------------------------
Total Dipole Moment    :      0.43974      -0.52267       0.32237
                        -----------------------------------------
Magnitude (a.u.)       :      0.75530
Magnitude (Debye)      :      1.91982

                             ****ORCA TERMINATED NORMALLY****
TOTAL RUN TIME: 0 days 0 hours 0 minutes 7 seconds 152 msec
