                         Program Version 3.0.3 - RELEASE   -
|  1> ! RI PBE def2-SVP def2-SVP/J NBO PAL2
|  2> % maxcore 2000
|  3> % output
|  4>     # printlevel mini
|  5>     print[ P_Basis ] 0
|  6>     print[ P_SCFInfo ] 1
|  7>     print[ P_SCFIterInfo ] 1
|  8>     print[ P_OrbEn ] 0
|  9>     print[ P_Cartesian ] 0
| 10> end
| 11> *xyz 0 1
| 12>  N        1.0405770000    -0.0603460000    -0.0411540000
| 13>  C        2.4879230000     0.0932100000    -0.0459850000
| 14>  C        3.0036980000     1.3978220000     0.5194420000
| 15>  C        3.7144300000     1.2222550000     1.6328390000
| 16>  C        3.8707620000    -0.2273790000     1.9141510000
| 17>  O        4.5440020000    -0.9297310000     0.8589920000
| 18>  C        3.1311600000    -0.9373820000     0.8664730000
| 19>  H        0.6171790000     0.4873670000    -0.7791780000
| 20>  H        0.6579610000     0.2757180000     0.8352990000
| 21>  H        2.8392110000    -0.0589400000    -1.0722850000
| 22>  H        2.8032740000     2.3524310000     0.0451440000
| 23>  H        4.1639800000     2.0039120000     2.2321600000
| 24>  H        4.0407710000    -0.6192760000     2.9107970000
| 25>  H        2.6447810000    -1.8984610000     1.0044060000
| 26> *
| 27>
| 28>                          ****END OF INPUT****
 Total Charge           Charge          ....    0
 Multiplicity           Mult            ....    1
 Number of Electrons    NEL             ....   52
 Basis Dimension        Dim             ....  133

MULLIKEN ATOMIC CHARGES
-----------------------
   0 N :   -0.165226
   1 C :    0.116560
   2 C :   -0.083942
   3 C :    0.061521
   4 C :    0.081093
   5 O :   -0.264749
   6 C :    0.031702
   7 H :    0.093590
   8 H :    0.087825
   9 H :    0.030282
  10 H :   -0.009029
  11 H :   -0.008991
  12 H :    0.014387
  13 H :    0.014976
Sum of atomic charges:   -0.0000000

LOEWDIN ATOMIC CHARGES
----------------------
   0 N :   -0.083512
   1 C :   -0.008204
   2 C :   -0.033585
   3 C :   -0.041954
   4 C :    0.042171
   5 O :   -0.143472
   6 C :    0.045028
   7 H :    0.056519
   8 H :    0.052833
   9 H :    0.037846
  10 H :    0.019015
  11 H :    0.025060
  12 H :    0.016144
  13 H :    0.016110

  Mayer bond orders larger than 0.1
B(  0-N ,  1-C ) :   1.0873 B(  0-N ,  7-H ) :   0.9624 B(  0-N ,  8-H ) :   0.9668
B(  1-C ,  2-C ) :   0.9979 B(  1-C ,  6-C ) :   0.9609 B(  1-C ,  9-H ) :   0.8773
B(  2-C ,  3-C ) :   1.7678 B(  2-C , 10-H ) :   0.9752 B(  3-C ,  4-C ) :   0.9854
B(  3-C , 11-H ) :   0.9999 B(  4-C ,  5-O ) :   0.9570 B(  4-C ,  6-C ) :   1.0088
B(  4-C , 12-H ) :   0.9625 B(  5-O ,  6-C ) :   1.0107 B(  6-C , 13-H ) :   0.9530

FINAL SINGLE POINT ENERGY      -324.012630033581

DIPOLE MOMENT
-------------
                                X             Y             Z
Electronic contribution:      2.92625      -1.32219       0.54753
Nuclear contribution   :     -3.59798       2.00230      -0.35968
                        -----------------------------------------
Total Dipole Moment    :     -0.67172       0.68011       0.18785
                        -----------------------------------------
Magnitude (a.u.)       :      0.97420
Magnitude (Debye)      :      2.47621

                             ****ORCA TERMINATED NORMALLY****
TOTAL RUN TIME: 0 days 0 hours 0 minutes 5 seconds 525 msec
