                         Program Version 3.0.3 - RELEASE   -
|  1> ! RI PBE def2-SVP def2-SVP/J NBO PAL2
|  2> % maxcore 2000
|  3> % output
|  4>     # printlevel mini
|  5>     print[ P_Basis ] 0
|  6>     print[ P_SCFInfo ] 1
|  7>     print[ P_SCFIterInfo ] 1
|  8>     print[ P_OrbEn ] 0
|  9>     print[ P_Cartesian ] 0
| 10> end
| 11> *xyz 0 1
| 12>  N        1.2930250000    -0.0923890000    -0.3106680000
| 13>  C        2.6859760000     0.0892480000     0.0472520000
| 14>  C        3.0857900000     1.2309220000     0.9813290000
| 15>  C        4.4510710000     0.7982520000     1.5589690000
| 16>  C        4.6065740000    -0.6998830000     1.2147700000
| 17>  C        3.2224540000    -1.1340830000     0.7763720000
| 18>  O        3.2383660000    -2.2893220000    -0.0178570000
| 19>  H        0.9831460000     0.6030630000    -0.9766020000
| 20>  H        0.6998260000    -0.0105640000     0.5078960000
| 21>  H        3.2534510000     0.1662490000    -0.8887250000
| 22>  H        2.3390560000     1.3140430000     1.7788300000
| 23>  H        3.1209060000     2.1989810000     0.4770350000
| 24>  H        4.4886980000     0.9670100000     2.6366640000
| 25>  H        5.2674370000     1.3798250000     1.1272130000
| 26>  H        4.9937440000    -1.2920460000     2.0448600000
| 27>  H        5.2854530000    -0.8426970000     0.3693280000
| 28>  H        2.5879520000    -1.2951650000     1.6677230000
| 29>  H        2.3848750000    -2.3080260000    -0.4686790000
| 30> *
| 31>
| 32>                          ****END OF INPUT****
 Total Charge           Charge          ....    0
 Multiplicity           Mult            ....    1
 Number of Electrons    NEL             ....   56
 Basis Dimension        Dim             ....  153

MULLIKEN ATOMIC CHARGES
-----------------------
   0 N :   -0.155257
   1 C :   -0.106073
   2 C :    0.069506
   3 C :   -0.019586
   4 C :    0.070233
   5 C :    0.066604
   6 O :   -0.248719
   7 H :    0.095203
   8 H :    0.087932
   9 H :   -0.000481
  10 H :   -0.011941
  11 H :   -0.000431
  12 H :    0.008724
  13 H :    0.007599
  14 H :    0.010931
  15 H :    0.003210
  16 H :   -0.024476
  17 H :    0.147020
Sum of atomic charges:   -0.0000000

LOEWDIN ATOMIC CHARGES
----------------------
   0 N :   -0.086510
   1 C :   -0.027182
   2 C :   -0.055277
   3 C :   -0.038742
   4 C :   -0.044469
   5 C :    0.033578
   6 O :   -0.112426
   7 H :    0.056230
   8 H :    0.051418
   9 H :    0.020865
  10 H :    0.018152
  11 H :    0.020090
  12 H :    0.025390
  13 H :    0.026375
  14 H :    0.026050
  15 H :    0.026885
  16 H :   -0.000699
  17 H :    0.060273

  Mayer bond orders larger than 0.1
B(  0-N ,  1-C ) :   1.1260 B(  0-N ,  7-H ) :   0.9659 B(  0-N ,  8-H ) :   0.9626
B(  1-C ,  2-C ) :   1.0482 B(  1-C ,  5-C ) :   0.9921 B(  1-C ,  9-H ) :   0.8955
B(  2-C ,  3-C ) :   1.1220 B(  2-C , 10-H ) :   0.9047 B(  2-C , 11-H ) :   0.9227
B(  3-C ,  4-C ) :   1.1190 B(  3-C , 12-H ) :   0.9265 B(  3-C , 13-H ) :   0.9234
B(  4-C ,  5-C ) :   1.0795 B(  4-C , 14-H ) :   0.9269 B(  4-C , 15-H ) :   0.9026
B(  5-C ,  6-O ) :   1.1412 B(  5-C , 16-H ) :   0.8982 B(  6-O , 17-H ) :   0.9611

FINAL SINGLE POINT ENERGY      -326.465454412376

DIPOLE MOMENT
-------------
                                X             Y             Z
Electronic contribution:     -0.84884      -3.36770      -1.66835
Nuclear contribution   :      0.30935       4.22841       1.76126
                        -----------------------------------------
Total Dipole Moment    :     -0.53949       0.86072       0.09291
                        -----------------------------------------
Magnitude (a.u.)       :      1.02006
Magnitude (Debye)      :      2.59278

                             ****ORCA TERMINATED NORMALLY****
TOTAL RUN TIME: 0 days 0 hours 0 minutes 7 seconds 897 msec
