                         Program Version 3.0.3 - RELEASE   -
|  1> ! RI PBE def2-SVP def2-SVP/J NBO PAL2
|  2> % maxcore 2000
|  3> % output
|  4>     # printlevel mini
|  5>     print[ P_Basis ] 0
|  6>     print[ P_SCFInfo ] 1
|  7>     print[ P_SCFIterInfo ] 1
|  8>     print[ P_OrbEn ] 0
|  9>     print[ P_Cartesian ] 0
| 10> end
| 11> *xyz 0 1
| 12>  N        0.9919700000    -0.0015340000     0.2889240000
| 13>  C        2.4127030000    -0.1075780000     0.0515600000
| 14>  C        2.9633200000    -1.3081930000    -0.6896320000
| 15>  C        3.9887880000    -0.9661060000    -1.4644560000
| 16>  C        4.2579360000     0.5128770000    -1.3789880000
| 17>  C        2.9365630000     1.0523250000    -0.8209060000
| 18>  O        2.0326020000     1.3488640000    -1.8689760000
| 19>  H        0.6159610000    -0.8541960000     0.6813790000
| 20>  H        0.5106350000     0.1975990000    -0.5792070000
| 21>  H        2.9218070000    -0.0508430000     1.0255820000
| 22>  H        2.5901110000    -2.3164190000    -0.5447230000
| 23>  H        4.5897440000    -1.6497140000    -2.0533490000
| 24>  H        4.5090920000     0.9837010000    -2.3331150000
| 25>  H        5.0896200000     0.7163580000    -0.6924850000
| 26>  H        3.0419800000     1.9773880000    -0.2535040000
| 27>  H        2.0533570000     0.6066820000    -2.4830930000
| 28> *
| 29>
| 30>                          ****END OF INPUT****
 Total Charge           Charge          ....    0
 Multiplicity           Mult            ....    1
 Number of Electrons    NEL             ....   54
 Basis Dimension        Dim             ....  143

MULLIKEN ATOMIC CHARGES
-----------------------
   0 N :   -0.148629
   1 C :    0.021461
   2 C :   -0.038655
   3 C :   -0.091065
   4 C :    0.095116
   5 C :    0.067218
   6 O :   -0.257731
   7 H :    0.086024
   8 H :    0.076264
   9 H :    0.015250
  10 H :   -0.017251
  11 H :   -0.009241
  12 H :    0.017980
  13 H :    0.027249
  14 H :    0.005288
  15 H :    0.150721
Sum of atomic charges:    0.0000000

LOEWDIN ATOMIC CHARGES
----------------------
   0 N :   -0.091545
   1 C :   -0.022201
   2 C :   -0.056459
   3 C :   -0.043389
   4 C :   -0.054555
   5 C :    0.061722
   6 O :   -0.099866
   7 H :    0.049987
   8 H :    0.040155
   9 H :    0.028923
  10 H :    0.017648
  11 H :    0.020145
  12 H :    0.026660
  13 H :    0.038380
  14 H :    0.020727
  15 H :    0.063669

  Mayer bond orders larger than 0.1
B(  0-N ,  1-C ) :   1.1490 B(  0-N ,  7-H ) :   0.9657 B(  0-N ,  8-H ) :   0.9473
B(  1-C ,  2-C ) :   0.9419 B(  1-C ,  5-C ) :   0.9926 B(  1-C ,  9-H ) :   0.8806
B(  2-C ,  3-C ) :   1.8391 B(  2-C , 10-H ) :   0.9824 B(  3-C ,  4-C ) :   1.0073
B(  3-C , 11-H ) :   0.9781 B(  4-C ,  5-C ) :   1.0533 B(  4-C , 12-H ) :   0.9281
B(  4-C , 13-H ) :   0.9001 B(  5-C ,  6-O ) :   1.0613 B(  5-C , 14-H ) :   0.9156
B(  6-O , 15-H ) :   0.9755

FINAL SINGLE POINT ENERGY      -325.243048154693

DIPOLE MOMENT
-------------
                                X             Y             Z
Electronic contribution:     -0.84316       0.54869      -0.67209
Nuclear contribution   :      1.18012      -1.31511       0.43056
                        -----------------------------------------
Total Dipole Moment    :      0.33697      -0.76642      -0.24152
                        -----------------------------------------
Magnitude (a.u.)       :      0.87136
Magnitude (Debye)      :      2.21483

                             ****ORCA TERMINATED NORMALLY****
TOTAL RUN TIME: 0 days 0 hours 0 minutes 7 seconds 405 msec
