                         Program Version 3.0.3 - RELEASE   -
|  1> ! RI PBE def2-SVP def2-SVP/J NBO PAL2
|  2> % maxcore 2000
|  3> % output
|  4>     # printlevel mini
|  5>     print[ P_Basis ] 0
|  6>     print[ P_SCFInfo ] 1
|  7>     print[ P_SCFIterInfo ] 1
|  8>     print[ P_OrbEn ] 0
|  9>     print[ P_Cartesian ] 0
| 10> end
| 11> *xyz 0 1
| 12>  N        0.9677470000    -0.0410810000    -0.0069210000
| 13>  C        2.4197170000    -0.1372650000    -0.0520660000
| 14>  C        2.9533290000    -1.3536950000    -0.8427490000
| 15>  C        3.2740490000    -0.7742390000    -2.1889430000
| 16>  C        3.2510480000     0.5560320000    -2.1795710000
| 17>  C        2.9810940000     1.0898650000    -0.8025050000
| 18>  O        4.1572700000     1.6335510000    -0.2220470000
| 19>  H        0.5758650000    -0.8389850000     0.4784810000
| 20>  H        0.5884860000    -0.0578760000    -0.9481510000
| 21>  H        2.7862510000    -0.1203640000     0.9763560000
| 22>  H        2.2048050000    -2.1508280000    -0.8913410000
| 23>  H        3.8470650000    -1.7999190000    -0.3885330000
| 24>  H        3.5119390000    -1.3842170000    -3.0540050000
| 25>  H        3.4749820000     1.1985730000    -3.0230570000
| 26>  H        2.2465910000     1.8982770000    -0.7745110000
| 27>  H        4.8933620000     1.0646710000    -0.4661380000
| 28> *
| 29>
| 30>                          ****END OF INPUT****
 Total Charge           Charge          ....    0
 Multiplicity           Mult            ....    1
 Number of Electrons    NEL             ....   54
 Basis Dimension        Dim             ....  143

MULLIKEN ATOMIC CHARGES
-----------------------
   0 N :   -0.155643
   1 C :   -0.049077
   2 C :    0.100866
   3 C :   -0.076221
   4 C :   -0.056479
   5 C :    0.152699
   6 O :   -0.256484
   7 H :    0.086982
   8 H :    0.084100
   9 H :   -0.002020
  10 H :    0.004569
  11 H :    0.019515
  12 H :   -0.003009
  13 H :   -0.003948
  14 H :    0.006268
  15 H :    0.147883
Sum of atomic charges:    0.0000000

LOEWDIN ATOMIC CHARGES
----------------------
   0 N :   -0.088467
   1 C :   -0.004682
   2 C :   -0.061389
   3 C :   -0.026641
   4 C :   -0.062871
   5 C :    0.045523
   6 O :   -0.106980
   7 H :    0.050077
   8 H :    0.049326
   9 H :    0.020819
  10 H :    0.024302
  11 H :    0.031705
  12 H :    0.021625
  13 H :    0.023614
  14 H :    0.020874
  15 H :    0.063165

  Mayer bond orders larger than 0.1
B(  0-N ,  1-C ) :   1.0969 B(  0-N ,  7-H ) :   0.9641 B(  0-N ,  8-H ) :   0.9656
B(  1-C ,  2-C ) :   1.0011 B(  1-C ,  5-C ) :   0.9848 B(  1-C ,  9-H ) :   0.9051
B(  2-C ,  3-C ) :   1.0172 B(  2-C , 10-H ) :   0.9212 B(  2-C , 11-H ) :   0.9010
B(  3-C ,  4-C ) :   1.8044 B(  3-C , 12-H ) :   0.9806 B(  4-C ,  5-C ) :   1.0096
B(  4-C , 13-H ) :   0.9921 B(  5-C ,  6-O ) :   1.0748 B(  5-C , 14-H ) :   0.9120
B(  6-O , 15-H ) :   0.9821

FINAL SINGLE POINT ENERGY      -325.241265009178

DIPOLE MOMENT
-------------
                                X             Y             Z
Electronic contribution:      1.53605       2.41756      -0.10889
Nuclear contribution   :     -1.46679      -3.38995      -0.36566
                        -----------------------------------------
Total Dipole Moment    :      0.06927      -0.97238      -0.47455
                        -----------------------------------------
Magnitude (a.u.)       :      1.08422
Magnitude (Debye)      :      2.75586

                             ****ORCA TERMINATED NORMALLY****
TOTAL RUN TIME: 0 days 0 hours 0 minutes 7 seconds 351 msec
