                         Program Version 3.0.3 - RELEASE   -
|  1> ! RI PBE def2-SVP def2-SVP/J NBO PAL2
|  2> % maxcore 2000
|  3> % output
|  4>     # printlevel mini
|  5>     print[ P_Basis ] 0
|  6>     print[ P_SCFInfo ] 1
|  7>     print[ P_SCFIterInfo ] 1
|  8>     print[ P_OrbEn ] 0
|  9>     print[ P_Cartesian ] 0
| 10> end
| 11> *xyz 0 1
| 12>  N        1.1405430000    -0.2345310000    -0.1961520000
| 13>  C        2.5041410000    -0.0133630000    -0.0318920000
| 14>  C        3.2920260000     1.1140200000    -0.0622830000
| 15>  C        4.6432860000     0.6882020000     0.0477570000
| 16>  C        4.6563950000    -0.6761520000     0.1470060000
| 17>  N        3.3478800000    -1.0757530000     0.0784020000
| 18>  O        2.9167260000    -2.3644120000     0.2100420000
| 19>  H        0.6249960000     0.6317330000    -0.2173140000
| 20>  H        0.7562720000    -0.8495710000     0.5097010000
| 21>  H        2.9352190000     2.1278810000    -0.1552200000
| 22>  H        5.5141720000     1.3240650000     0.0675540000
| 23>  H        5.4457830000    -1.3948040000     0.2851170000
| 24>  H        2.7351610000    -2.6706250000    -0.6887070000
| 25> *
| 26>
| 27>                          ****END OF INPUT****
 Total Charge           Charge          ....    0
 Multiplicity           Mult            ....    1
 Number of Electrons    NEL             ....   52
 Basis Dimension        Dim             ....  128

MULLIKEN ATOMIC CHARGES
-----------------------
   0 N :   -0.071480
   1 C :    0.047654
   2 C :   -0.117990
   3 C :   -0.011840
   4 C :    0.066184
   5 N :   -0.061568
   6 O :   -0.177608
   7 H :    0.111213
   8 H :    0.114852
   9 H :   -0.048813
  10 H :   -0.024685
  11 H :   -0.015176
  12 H :    0.189257
Sum of atomic charges:   -0.0000000

LOEWDIN ATOMIC CHARGES
----------------------
   0 N :   -0.047528
   1 C :   -0.024585
   2 C :   -0.137216
   3 C :   -0.082760
   4 C :   -0.063718
   5 N :    0.114781
   6 O :   -0.045873
   7 H :    0.075152
   8 H :    0.067148
   9 H :    0.017942
  10 H :    0.022798
  11 H :    0.018353
  12 H :    0.085507

  Mayer bond orders larger than 0.1
B(  0-N ,  1-C ) :   1.1958 B(  0-N ,  7-H ) :   0.9518 B(  0-N ,  8-H ) :   0.9349
B(  1-C ,  2-C ) :   1.4218 B(  1-C ,  5-N ) :   1.1933 B(  2-C ,  3-C ) :   1.2664
B(  2-C ,  9-H ) :   1.0174 B(  3-C ,  4-C ) :   1.4724 B(  3-C , 10-H ) :   0.9952
B(  4-C ,  5-N ) :   1.1391 B(  4-C , 11-H ) :   0.9909 B(  5-N ,  6-O ) :   0.9530
B(  6-O , 12-H ) :   0.9641

FINAL SINGLE POINT ENERGY      -340.040626998234

DIPOLE MOMENT
-------------
                                X             Y             Z
Electronic contribution:      0.12057      -2.02916       0.16545
Nuclear contribution   :     -0.84547       1.69418      -0.34083
                        -----------------------------------------
Total Dipole Moment    :     -0.72490      -0.33497      -0.17538
                        -----------------------------------------
Magnitude (a.u.)       :      0.81759
Magnitude (Debye)      :      2.07814

                             ****ORCA TERMINATED NORMALLY****
TOTAL RUN TIME: 0 days 0 hours 0 minutes 6 seconds 590 msec
