                         Program Version 3.0.3 - RELEASE   -
|  1> ! RI PBE def2-SVP def2-SVP/J NBO PAL2
|  2> % maxcore 2000
|  3> % output
|  4>     # printlevel mini
|  5>     print[ P_Basis ] 0
|  6>     print[ P_SCFInfo ] 1
|  7>     print[ P_SCFIterInfo ] 1
|  8>     print[ P_OrbEn ] 0
|  9>     print[ P_Cartesian ] 0
| 10> end
| 11> *xyz 0 1
| 12>  N        0.9948120000    -0.1516360000    -0.0635780000
| 13>  C        2.3410500000     0.0854490000    -0.0572000000
| 14>  C        3.1204140000     1.1882130000    -0.0555730000
| 15>  C        4.4870600000     0.7116310000    -0.0477910000
| 16>  C        4.4116870000    -0.6366320000    -0.0453980000
| 17>  N        5.3185700000    -1.6594350000    -0.0389010000
| 18>  O        3.1093770000    -1.0412090000    -0.0510430000
| 19>  H        0.3486180000     0.6096430000    -0.0671970000
| 20>  H        0.6515200000    -1.0904500000    -0.0621590000
| 21>  H        2.7871910000     2.2130220000    -0.0593720000
| 22>  H        5.3852820000     1.3070050000    -0.0445790000
| 23>  H        6.2980150000    -1.4650560000    -0.0332980000
| 24>  H        5.0036250000    -2.6081350000    -0.0375290000
| 25> *
| 26>
| 27>                          ****END OF INPUT****
 Total Charge           Charge          ....    0
 Multiplicity           Mult            ....    1
 Number of Electrons    NEL             ....   52
 Basis Dimension        Dim             ....  128

MULLIKEN ATOMIC CHARGES
-----------------------
   0 N :   -0.065769
   1 C :    0.139435
   2 C :   -0.140106
   3 C :   -0.132849
   4 C :    0.136761
   5 N :   -0.067264
   6 O :   -0.219184
   7 H :    0.113602
   8 H :    0.111649
   9 H :   -0.051013
  10 H :   -0.050639
  11 H :    0.113174
  12 H :    0.112203
Sum of atomic charges:   -0.0000000

LOEWDIN ATOMIC CHARGES
----------------------
   0 N :   -0.024035
   1 C :    0.028697
   2 C :   -0.155561
   3 C :   -0.154765
   4 C :    0.028411
   5 N :   -0.025196
   6 O :   -0.023020
   7 H :    0.074881
   8 H :    0.070216
   9 H :    0.017549
  10 H :    0.017829
  11 H :    0.074674
  12 H :    0.070322

  Mayer bond orders larger than 0.1
B(  0-N ,  1-C ) :   1.1955 B(  0-N ,  7-H ) :   0.9568 B(  0-N ,  8-H ) :   0.9435
B(  1-C ,  2-C ) :   1.5368 B(  1-C ,  6-O ) :   1.0972 B(  2-C ,  3-C ) :   1.0649
B(  2-C ,  9-H ) :   1.0267 B(  3-C ,  4-C ) :   1.5430 B(  3-C , 10-H ) :   1.0242
B(  4-C ,  5-N ) :   1.1940 B(  4-C ,  6-O ) :   1.0974 B(  5-N , 11-H ) :   0.9561
B(  5-N , 12-H ) :   0.9430

FINAL SINGLE POINT ENERGY      -340.082958034124

DIPOLE MOMENT
-------------
                                X             Y             Z
Electronic contribution:     -0.42261      -1.19226      -0.00049
Nuclear contribution   :      0.19295       0.55336       0.00342
                        -----------------------------------------
Total Dipole Moment    :     -0.22966      -0.63890       0.00294
                        -----------------------------------------
Magnitude (a.u.)       :      0.67893
Magnitude (Debye)      :      1.72571

                             ****ORCA TERMINATED NORMALLY****
TOTAL RUN TIME: 0 days 0 hours 0 minutes 6 seconds 259 msec
