                         Program Version 3.0.3 - RELEASE   -
|  1> ! RI PBE def2-SVP def2-SVP/J NBO PAL2
|  2> % maxcore 2000
|  3> % output
|  4>     # printlevel mini
|  5>     print[ P_Basis ] 0
|  6>     print[ P_SCFInfo ] 1
|  7>     print[ P_SCFIterInfo ] 1
|  8>     print[ P_OrbEn ] 0
|  9>     print[ P_Cartesian ] 0
| 10> end
| 11> *xyz 0 1
| 12>  N        1.0846970000     0.1253530000     0.0588600000
| 13>  C        2.5286310000    -0.0047550000    -0.0598330000
| 14>  C        3.0315280000    -1.4098940000    -0.4149680000
| 15>  C        2.6760410000    -1.7694020000    -1.8516750000
| 16>  C        3.1221050000    -0.6626530000    -2.7896580000
| 17>  O        2.5866880000     0.5877680000    -2.4118270000
| 18>  C        3.0152850000     0.9692330000    -1.1214020000
| 19>  H        0.6958180000    -0.6231700000     0.6189990000
| 20>  H        0.6573970000     0.0730110000    -0.8582290000
| 21>  H        2.9722550000     0.2979120000     0.8961680000
| 22>  H        2.6200190000    -2.1432500000     0.2861000000
| 23>  H        4.1216920000    -1.4362900000    -0.2929900000
| 24>  H        1.5940660000    -1.9052720000    -1.9513930000
| 25>  H        3.1426950000    -2.7145140000    -2.1452180000
| 26>  H        2.7861970000    -0.8451790000    -3.8125870000
| 27>  H        4.2231830000    -0.6016980000    -2.8009340000
| 28>  H        2.6036810000     1.9632530000    -0.9386760000
| 29>  H        4.1142140000     1.0294580000    -1.0952470000
| 30> *
| 31>
| 32>                          ****END OF INPUT****
 Total Charge           Charge          ....    0
 Multiplicity           Mult            ....    1
 Number of Electrons    NEL             ....   56
 Basis Dimension        Dim             ....  153

MULLIKEN ATOMIC CHARGES
-----------------------
   0 N :   -0.163752
   1 C :   -0.076818
   2 C :    0.003251
   3 C :   -0.013031
   4 C :    0.181050
   5 O :   -0.347728
   6 C :    0.222132
   7 H :    0.082164
   8 H :    0.086506
   9 H :   -0.000833
  10 H :    0.007699
  11 H :    0.001809
  12 H :    0.003908
  13 H :    0.009438
  14 H :    0.011855
  15 H :   -0.011649
  16 H :    0.014226
  17 H :   -0.010228
Sum of atomic charges:   -0.0000000

LOEWDIN ATOMIC CHARGES
----------------------
   0 N :   -0.093630
   1 C :   -0.019131
   2 C :   -0.056847
   3 C :   -0.062140
   4 C :    0.059206
   5 O :   -0.148009
   6 C :    0.060444
   7 H :    0.048909
   8 H :    0.044173
   9 H :    0.021712
  10 H :    0.020519
  11 H :    0.022081
  12 H :    0.019404
  13 H :    0.028609
  14 H :    0.021316
  15 H :    0.004779
  16 H :    0.022866
  17 H :    0.005740

  Mayer bond orders larger than 0.1
B(  0-N ,  1-C ) :   1.1093 B(  0-N ,  7-H ) :   0.9673 B(  0-N ,  8-H ) :   0.9630
B(  1-C ,  2-C ) :   1.0348 B(  1-C ,  6-C ) :   1.0520 B(  1-C ,  9-H ) :   0.9055
B(  2-C ,  3-C ) :   1.0727 B(  2-C , 10-H ) :   0.9312 B(  2-C , 11-H ) :   0.9197
B(  3-C ,  4-C ) :   1.0970 B(  3-C , 12-H ) :   0.9190 B(  3-C , 13-H ) :   0.9229
B(  4-C ,  5-O ) :   1.0249 B(  4-C , 14-H ) :   0.9419 B(  4-C , 15-H ) :   0.9153
B(  5-O ,  6-C ) :   1.0179 B(  6-C , 16-H ) :   0.9334 B(  6-C , 17-H ) :   0.9168

FINAL SINGLE POINT ENERGY      -326.458974952154

DIPOLE MOMENT
-------------
                                X             Y             Z
Electronic contribution:     -1.02465       2.63762      -1.27957
Nuclear contribution   :      1.27412      -3.36550       1.38375
                        -----------------------------------------
Total Dipole Moment    :      0.24947      -0.72788       0.10418
                        -----------------------------------------
Magnitude (a.u.)       :      0.77647
Magnitude (Debye)      :      1.97362

                             ****ORCA TERMINATED NORMALLY****
TOTAL RUN TIME: 0 days 0 hours 0 minutes 7 seconds 946 msec
