                         Program Version 3.0.3 - RELEASE   -
|  1> ! RI PBE def2-SVP def2-SVP/J NBO PAL2
|  2> % maxcore 2000
|  3> % output
|  4>     # printlevel mini
|  5>     print[ P_Basis ] 0
|  6>     print[ P_SCFInfo ] 1
|  7>     print[ P_SCFIterInfo ] 1
|  8>     print[ P_OrbEn ] 0
|  9>     print[ P_Cartesian ] 0
| 10> end
| 11> *xyz 0 1
| 12>  N        0.8794360000    -0.1859660000     0.0387290000
| 13>  C        2.3138570000    -0.0773630000     0.0377060000
| 14>  C        3.0672770000     1.0590750000     0.7801900000
| 15>  C        4.1048780000     0.0140790000     1.2414940000
| 16>  C        5.3509580000    -0.0062940000     0.3821410000
| 17>  O        6.1710250000    -1.1313880000     0.6171660000
| 18>  C        3.0868540000    -1.0920960000     0.8961650000
| 19>  H        0.4531290000     0.5242190000    -0.5434670000
| 20>  H        0.5105460000    -0.0731280000     0.9757190000
| 21>  H        2.6491950000    -0.1287250000    -1.0019400000
| 22>  H        2.4734880000     1.4363400000     1.6170810000
| 23>  H        3.4283710000     1.9098120000     0.1950100000
| 24>  H        4.3988080000     0.0750910000     2.2948580000
| 25>  H        5.9120570000     0.9287660000     0.5283270000
| 26>  H        5.0818690000    -0.0563740000    -0.6771350000
| 27>  H        6.4305150000    -1.1255420000     1.5422320000
| 28>  H        2.4954300000    -1.3819560000     1.7691110000
| 29>  H        3.4671960000    -1.9943600000     0.4151120000
| 30> *
| 31>
| 32>                          ****END OF INPUT****
 Total Charge           Charge          ....    0
 Multiplicity           Mult            ....    1
 Number of Electrons    NEL             ....   56
 Basis Dimension        Dim             ....  153

MULLIKEN ATOMIC CHARGES
-----------------------
   0 N :   -0.126747
   1 C :   -0.177454
   2 C :    0.141549
   3 C :   -0.259722
   4 C :    0.252020
   5 O :   -0.284779
   6 C :    0.159437
   7 H :    0.089759
   8 H :    0.077634
   9 H :    0.009797
  10 H :   -0.023605
  11 H :    0.003115
  12 H :   -0.011395
  13 H :   -0.003404
  14 H :   -0.000335
  15 H :    0.152190
  16 H :   -0.012218
  17 H :    0.014160
Sum of atomic charges:    0.0000000

LOEWDIN ATOMIC CHARGES
----------------------
   0 N :   -0.089337
   1 C :    0.000092
   2 C :   -0.049471
   3 C :   -0.061455
   4 C :    0.056194
   5 O :   -0.120500
   6 C :   -0.028607
   7 H :    0.053081
   8 H :    0.046169
   9 H :    0.020634
  10 H :    0.018255
  11 H :    0.012426
  12 H :    0.010505
  13 H :    0.004319
  14 H :    0.019643
  15 H :    0.066594
  16 H :    0.022109
  17 H :    0.019348

  Mayer bond orders larger than 0.1
B(  0-N ,  1-C ) :   1.1575 B(  0-N ,  7-H ) :   0.9653 B(  0-N ,  8-H ) :   0.9558
B(  1-C ,  2-C ) :   1.0440 B(  1-C ,  6-C ) :   1.0768 B(  1-C ,  9-H ) :   0.9053
B(  2-C ,  3-C ) :   1.0773 B(  2-C , 10-H ) :   0.8768 B(  2-C , 11-H ) :   0.9287
B(  3-C ,  4-C ) :   1.0197 B(  3-C ,  6-C ) :   1.0709 B(  3-C , 12-H ) :   0.9014
B(  4-C ,  5-O ) :   1.0577 B(  4-C , 13-H ) :   0.9277 B(  4-C , 14-H ) :   0.9293
B(  5-O , 15-H ) :   0.9846 B(  6-C , 16-H ) :   0.8971 B(  6-C , 17-H ) :   0.9217

FINAL SINGLE POINT ENERGY      -326.431417761289

DIPOLE MOMENT
-------------
                                X             Y             Z
Electronic contribution:      1.90346      -1.58172      -0.22659
Nuclear contribution   :     -2.11315       2.32026       0.78815
                        -----------------------------------------
Total Dipole Moment    :     -0.20969       0.73854       0.56155
                        -----------------------------------------
Magnitude (a.u.)       :      0.95119
Magnitude (Debye)      :      2.41773

                             ****ORCA TERMINATED NORMALLY****
TOTAL RUN TIME: 0 days 0 hours 0 minutes 7 seconds 191 msec
