                         Program Version 3.0.3 - RELEASE   -
|  1> ! RI PBE def2-SVP def2-SVP/J NBO PAL2
|  2> % maxcore 2000
|  3> % output
|  4>     # printlevel mini
|  5>     print[ P_Basis ] 0
|  6>     print[ P_SCFInfo ] 1
|  7>     print[ P_SCFIterInfo ] 1
|  8>     print[ P_OrbEn ] 0
|  9>     print[ P_Cartesian ] 0
| 10> end
| 11> *xyz 0 1
| 12>  N        1.1505840000     0.2615660000     0.5245720000
| 13>  C        2.3466220000     0.0441870000     0.1617690000
| 14>  C        3.0175650000    -1.2898550000    -0.0436870000
| 15>  C        4.0936220000    -1.2516710000    -1.1244710000
| 16>  C        4.9175910000     0.0115360000    -0.9796160000
| 17>  O        4.0720570000     1.1379230000    -1.0424620000
| 18>  N        3.2165270000     1.1260730000     0.0869960000
| 19>  H        0.6580350000    -0.6134840000     0.6860750000
| 20>  H        2.2580050000    -2.0429750000    -0.2603610000
| 21>  H        3.4761440000    -1.5559400000     0.9159650000
| 22>  H        3.6297510000    -1.2506820000    -2.1151470000
| 23>  H        4.7322290000    -2.1368730000    -1.0607020000
| 24>  H        5.6184720000     0.1342110000    -1.8073270000
| 25>  H        5.4750620000     0.0192420000    -0.0333220000
| 26>  H        2.7163260000     2.0063420000     0.0712280000
| 27> *
| 28>
| 29>                          ****END OF INPUT****
 Total Charge           Charge          ....    0
 Multiplicity           Mult            ....    1
 Number of Electrons    NEL             ....   54
 Basis Dimension        Dim             ....  138

MULLIKEN ATOMIC CHARGES
-----------------------
   0 N :   -0.091211
   1 C :   -0.192853
   2 C :    0.074709
   3 C :   -0.012109
   4 C :    0.168313
   5 O :   -0.306473
   6 N :    0.037808
   7 H :    0.083449
   8 H :    0.011670
   9 H :    0.043999
  10 H :    0.018008
  11 H :    0.014036
  12 H :    0.029005
  13 H :    0.005464
  14 H :    0.116184
Sum of atomic charges:   -0.0000000

LOEWDIN ATOMIC CHARGES
----------------------
   0 N :   -0.147442
   1 C :   -0.015757
   2 C :   -0.057039
   3 C :   -0.058121
   4 C :    0.049962
   5 O :   -0.117035
   6 N :    0.057330
   7 H :    0.047420
   8 H :    0.033629
   9 H :    0.045624
  10 H :    0.029096
  11 H :    0.030742
  12 H :    0.028584
  13 H :    0.006780
  14 H :    0.066227

  Mayer bond orders larger than 0.1
B(  0-N ,  1-C ) :   1.9996 B(  0-N ,  7-H ) :   0.9212 B(  1-C ,  2-C ) :   0.9909
B(  1-C ,  6-N ) :   1.1029 B(  2-C ,  3-C ) :   1.0706 B(  2-C ,  8-H ) :   0.9172
B(  2-C ,  9-H ) :   0.9188 B(  3-C ,  4-C ) :   1.0869 B(  3-C , 10-H ) :   0.9261
B(  3-C , 11-H ) :   0.9196 B(  4-C ,  5-O ) :   1.0043 B(  4-C , 12-H ) :   0.9388
B(  4-C , 13-H ) :   0.9323 B(  5-O ,  6-N ) :   0.9158 B(  6-N , 14-H ) :   0.9241

FINAL SINGLE POINT ENERGY      -341.238292540537

DIPOLE MOMENT
-------------
                                X             Y             Z
Electronic contribution:     -1.71251       4.36453       0.53503
Nuclear contribution   :      2.22680      -5.25249      -0.71510
                        -----------------------------------------
Total Dipole Moment    :      0.51430      -0.88796      -0.18006
                        -----------------------------------------
Magnitude (a.u.)       :      1.04182
Magnitude (Debye)      :      2.64811

                             ****ORCA TERMINATED NORMALLY****
TOTAL RUN TIME: 0 days 0 hours 0 minutes 7 seconds 133 msec
