                         Program Version 3.0.3 - RELEASE   -
|  1> ! RI PBE def2-SVP def2-SVP/J NBO PAL2
|  2> % maxcore 2000
|  3> % output
|  4>     # printlevel mini
|  5>     print[ P_Basis ] 0
|  6>     print[ P_SCFInfo ] 1
|  7>     print[ P_SCFIterInfo ] 1
|  8>     print[ P_OrbEn ] 0
|  9>     print[ P_Cartesian ] 0
| 10> end
| 11> *xyz 0 1
| 12>  N        1.1121760000    -0.2469970000     0.5620030000
| 13>  C        2.2836110000    -0.0497130000     0.1324660000
| 14>  C        3.0597450000     1.2317450000    -0.1022690000
| 15>  C        4.4213890000     0.7869980000    -0.6326420000
| 16>  C        4.3607700000    -0.7290530000    -0.6746230000
| 17>  O        5.2233400000    -1.4881260000    -1.0296510000
| 18>  N        3.1152240000    -1.0920060000    -0.2236020000
| 19>  H        0.6524290000     0.6345740000     0.7719660000
| 20>  H        3.1309960000     1.7865570000     0.8350440000
| 21>  H        2.5140510000     1.8595080000    -0.8090480000
| 22>  H        5.2569680000     1.0826280000     0.0037250000
| 23>  H        4.6402110000     1.1522960000    -1.6372670000
| 24>  H        2.8230110000    -2.0548210000    -0.1554920000
| 25> *
| 26>
| 27>                          ****END OF INPUT****
 Total Charge           Charge          ....    0
 Multiplicity           Mult            ....    1
 Number of Electrons    NEL             ....   52
 Basis Dimension        Dim             ....  128

MULLIKEN ATOMIC CHARGES
-----------------------
   0 N :   -0.059501
   1 C :   -0.188782
   2 C :    0.045425
   3 C :   -0.026421
   4 C :    0.038490
   5 O :   -0.161547
   6 N :   -0.056312
   7 H :    0.090212
   8 H :    0.048005
   9 H :    0.048617
  10 H :    0.051044
  11 H :    0.049760
  12 H :    0.121010
Sum of atomic charges:   -0.0000000

LOEWDIN ATOMIC CHARGES
----------------------
   0 N :   -0.147273
   1 C :    0.008986
   2 C :   -0.058856
   3 C :   -0.061106
   4 C :    0.034683
   5 O :   -0.155654
   6 N :    0.046165
   7 H :    0.053196
   8 H :    0.046247
   9 H :    0.046201
  10 H :    0.049324
  11 H :    0.049199
  12 H :    0.088889

  Mayer bond orders larger than 0.1
B(  0-N ,  1-C ) :   2.0497 B(  0-N ,  7-H ) :   0.9238 B(  1-C ,  2-C ) :   0.9758
B(  1-C ,  6-N ) :   1.1075 B(  2-C ,  3-C ) :   1.0933 B(  2-C ,  8-H ) :   0.9083
B(  2-C ,  9-H ) :   0.9091 B(  3-C ,  4-C ) :   0.9784 B(  3-C , 10-H ) :   0.9101
B(  3-C , 11-H ) :   0.9098 B(  4-C ,  5-O ) :   2.1824 B(  4-C ,  6-N ) :   1.1110
B(  6-N , 12-H ) :   0.9164

FINAL SINGLE POINT ENERGY      -340.137300992881

DIPOLE MOMENT
-------------
                                X             Y             Z
Electronic contribution:      0.87330      -4.34923      -0.51387
Nuclear contribution   :     -1.17201       5.49136       0.67489
                        -----------------------------------------
Total Dipole Moment    :     -0.29871       1.14213       0.16101
                        -----------------------------------------
Magnitude (a.u.)       :      1.19147
Magnitude (Debye)      :      3.02849

                             ****ORCA TERMINATED NORMALLY****
TOTAL RUN TIME: 0 days 0 hours 0 minutes 6 seconds 223 msec
