                         Program Version 3.0.3 - RELEASE   -
|  1> ! RI PBE def2-SVP def2-SVP/J NBO PAL2
|  2> % maxcore 2000
|  3> % output
|  4>     # printlevel mini
|  5>     print[ P_Basis ] 0
|  6>     print[ P_SCFInfo ] 1
|  7>     print[ P_SCFIterInfo ] 1
|  8>     print[ P_OrbEn ] 0
|  9>     print[ P_Cartesian ] 0
| 10> end
| 11> *xyz 0 1
| 12>  N        0.8818970000    -0.2596370000    -0.0834640000
| 13>  C        2.2700040000    -0.0418440000    -0.0324420000
| 14>  C        3.0634790000     1.0618000000     0.1212190000
| 15>  C        4.4244950000     0.6361120000     0.0898100000
| 16>  C        4.3978040000    -0.7226590000    -0.0834870000
| 17>  O        5.3653800000    -1.6620110000    -0.1867350000
| 18>  N        3.1099890000    -1.1298570000    -0.1568520000
| 19>  H        0.4424150000     0.2188430000    -0.8577670000
| 20>  H        0.4147870000     0.0135280000     0.7702360000
| 21>  H        2.7117330000     2.0747890000     0.2441630000
| 22>  H        5.3054080000     1.2523910000     0.1833380000
| 23>  H        6.2179930000    -1.2260300000    -0.1181580000
| 24>  H        2.7972260000    -2.0763130000    -0.2825700000
| 25> *
| 26>
| 27>                          ****END OF INPUT****
 Total Charge           Charge          ....    0
 Multiplicity           Mult            ....    1
 Number of Electrons    NEL             ....   52
 Basis Dimension        Dim             ....  128

MULLIKEN ATOMIC CHARGES
-----------------------
   0 N :   -0.115525
   1 C :   -0.032178
   2 C :   -0.066901
   3 C :   -0.125505
   4 C :    0.136311
   5 O :   -0.163469
   6 N :   -0.035470
   7 H :    0.110784
   8 H :    0.110329
   9 H :   -0.053035
  10 H :   -0.044363
  11 H :    0.177091
  12 H :    0.101930
Sum of atomic charges:   -0.0000000

LOEWDIN ATOMIC CHARGES
----------------------
   0 N :   -0.080424
   1 C :   -0.047383
   2 C :   -0.102899
   3 C :   -0.155329
   4 C :    0.012020
   5 O :   -0.042390
   6 N :    0.080986
   7 H :    0.064036
   8 H :    0.063888
   9 H :    0.017204
  10 H :    0.016247
  11 H :    0.094038
  12 H :    0.080004

  Mayer bond orders larger than 0.1
B(  0-N ,  1-C ) :   1.2025 B(  0-N ,  7-H ) :   0.9623 B(  0-N ,  8-H ) :   0.9615
B(  1-C ,  2-C ) :   1.5023 B(  1-C ,  4-C ) :   0.1023 B(  1-C ,  6-N ) :   1.1512
B(  2-C ,  3-C ) :   1.1990 B(  2-C ,  9-H ) :   1.0289 B(  3-C ,  4-C ) :   1.4169
B(  3-C , 10-H ) :   1.0082 B(  4-C ,  5-O ) :   1.2215 B(  4-C ,  6-N ) :   1.2128
B(  5-O , 11-H ) :   0.9671 B(  6-N , 12-H ) :   0.9245

FINAL SINGLE POINT ENERGY      -340.097368792838

DIPOLE MOMENT
-------------
                                X             Y             Z
Electronic contribution:      2.11323      -2.17711      -0.23842
Nuclear contribution   :     -2.12581       2.20245       0.24284
                        -----------------------------------------
Total Dipole Moment    :     -0.01259       0.02534       0.00441
                        -----------------------------------------
Magnitude (a.u.)       :      0.02863
Magnitude (Debye)      :      0.07278

                             ****ORCA TERMINATED NORMALLY****
TOTAL RUN TIME: 0 days 0 hours 0 minutes 6 seconds 132 msec
