                         Program Version 3.0.3 - RELEASE   -
|  1> ! RI PBE def2-SVP def2-SVP/J NBO PAL2
|  2> % maxcore 2000
|  3> % output
|  4>     # printlevel mini
|  5>     print[ P_Basis ] 0
|  6>     print[ P_SCFInfo ] 1
|  7>     print[ P_SCFIterInfo ] 1
|  8>     print[ P_OrbEn ] 0
|  9>     print[ P_Cartesian ] 0
| 10> end
| 11> *xyz 0 1
| 12>  N        1.0743010000    -0.1956900000    -0.1502580000
| 13>  C        2.4304580000     0.0272210000     0.0071330000
| 14>  C        3.2131420000     1.1254320000     0.1010460000
| 15>  C        4.5746010000     0.6508580000     0.1032980000
| 16>  C        4.4825840000    -0.6936820000     0.0300830000
| 17>  O        5.3520080000    -1.7138490000     0.0225050000
| 18>  O        3.1991950000    -1.0977710000    -0.0391240000
| 19>  H        0.5429300000     0.6582770000    -0.0811600000
| 20>  H        0.7082010000    -0.8930620000     0.4845650000
| 21>  H        2.8793700000     2.1485440000     0.1648420000
| 22>  H        5.4765800000     1.2382440000     0.1630040000
| 23>  H        6.2358500000    -1.3585210000     0.1461560000
| 24> *
| 25>
| 26>                          ****END OF INPUT****
 Total Charge           Charge          ....    0
 Multiplicity           Mult            ....    1
 Number of Electrons    NEL             ....   52
 Basis Dimension        Dim             ....  123

MULLIKEN ATOMIC CHARGES
-----------------------
   0 N :   -0.056729
   1 C :    0.077889
   2 C :   -0.106784
   3 C :   -0.137418
   4 C :    0.202352
   5 O :   -0.138492
   6 O :   -0.179914
   7 H :    0.109794
   8 H :    0.117898
   9 H :   -0.037837
  10 H :   -0.030737
  11 H :    0.179979
Sum of atomic charges:    0.0000000

LOEWDIN ATOMIC CHARGES
----------------------
   0 N :   -0.036786
   1 C :    0.015643
   2 C :   -0.134017
   3 C :   -0.153482
   4 C :    0.030846
   5 O :   -0.020203
   6 O :    0.007122
   7 H :    0.075831
   8 H :    0.072231
   9 H :    0.021988
  10 H :    0.022188
  11 H :    0.098638

  Mayer bond orders larger than 0.1
B(  0-N ,  1-C ) :   1.2072 B(  0-N ,  7-H ) :   0.9530 B(  0-N ,  8-H ) :   0.9401
B(  1-C ,  2-C ) :   1.5375 B(  1-C ,  6-O ) :   1.1067 B(  2-C ,  3-C ) :   1.0951
B(  2-C ,  9-H ) :   1.0270 B(  3-C ,  4-C ) :   1.5144 B(  3-C , 10-H ) :   1.0111
B(  4-C ,  5-O ) :   1.2401 B(  4-C ,  6-O ) :   1.1276 B(  5-O , 11-H ) :   0.9653

FINAL SINGLE POINT ENERGY      -359.928062887115

DIPOLE MOMENT
-------------
                                X             Y             Z
Electronic contribution:      1.43668      -2.75844      -0.26941
Nuclear contribution   :     -1.42999       3.19411       0.75459
                        -----------------------------------------
Total Dipole Moment    :      0.00669       0.43567       0.48518
                        -----------------------------------------
Magnitude (a.u.)       :      0.65212
Magnitude (Debye)      :      1.65755

                             ****ORCA TERMINATED NORMALLY****
TOTAL RUN TIME: 0 days 0 hours 0 minutes 5 seconds 822 msec
