                         Program Version 3.0.3 - RELEASE   -
|  1> ! RI PBE def2-SVP def2-SVP/J NBO PAL2
|  2> % maxcore 2000
|  3> % output
|  4>     # printlevel mini
|  5>     print[ P_Basis ] 0
|  6>     print[ P_SCFInfo ] 1
|  7>     print[ P_SCFIterInfo ] 1
|  8>     print[ P_OrbEn ] 0
|  9>     print[ P_Cartesian ] 0
| 10> end
| 11> *xyz 0 1
| 12>  N        1.0412460000     0.0130320000    -0.2879270000
| 13>  C        2.2777730000    -0.1408370000    -0.0572630000
| 14>  C        3.1272900000    -1.3075810000     0.1313570000
| 15>  C        4.3765320000    -0.8610680000     0.3471870000
| 16>  N        4.4518960000     0.5199250000     0.3217890000
| 17>  C        3.2072290000     1.0746730000     0.0785740000
| 18>  O        2.9541040000     2.2427020000    -0.0009790000
| 19>  H        0.5715700000    -0.8916670000    -0.3482010000
| 20>  H        2.8148450000    -2.3394460000     0.1034390000
| 21>  H        5.2717960000    -1.4399260000     0.5273180000
| 22>  H        5.2829300000     1.0669840000     0.4582050000
| 23> *
| 24>
| 25>                          ****END OF INPUT****
 Total Charge           Charge          ....    0
 Multiplicity           Mult            ....    1
 Number of Electrons    NEL             ....   50
 Basis Dimension        Dim             ....  118

MULLIKEN ATOMIC CHARGES
-----------------------
   0 N :   -0.024821
   1 C :   -0.208518
   2 C :   -0.011135
   3 C :    0.104465
   4 N :   -0.121601
   5 C :    0.149722
   6 O :   -0.105154
   7 H :    0.096705
   8 H :   -0.017382
   9 H :    0.017164
  10 H :    0.120555
Sum of atomic charges:    0.0000000

LOEWDIN ATOMIC CHARGES
----------------------
   0 N :   -0.047530
   1 C :   -0.044995
   2 C :   -0.120360
   3 C :    0.054825
   4 N :    0.026696
   5 C :    0.040171
   6 O :   -0.107783
   7 H :    0.056271
   8 H :    0.030000
   9 H :    0.029807
  10 H :    0.082897

  Mayer bond orders larger than 0.1
B(  0-N ,  1-C ) :   1.9878 B(  0-N ,  3-C ) :   0.1039 B(  0-N ,  7-H ) :   0.9242
B(  1-C ,  2-C ) :   1.0852 B(  1-C ,  5-C ) :   0.8358 B(  2-C ,  3-C ) :   1.5891
B(  2-C ,  8-H ) :   1.0237 B(  3-C ,  4-N ) :   1.1322 B(  3-C ,  9-H ) :   0.9722
B(  4-N ,  5-C ) :   1.0852 B(  4-N , 10-H ) :   0.9273 B(  5-C ,  6-O ) :   2.2459

FINAL SINGLE POINT ENERGY      -338.897957563960

DIPOLE MOMENT
-------------
                                X             Y             Z
Electronic contribution:     -0.27459       2.92155      -0.12979
Nuclear contribution   :      1.58174      -4.32357       0.41165
                        -----------------------------------------
Total Dipole Moment    :      1.30716      -1.40202       0.28186
                        -----------------------------------------
Magnitude (a.u.)       :      1.93746
Magnitude (Debye)      :      4.92464

                             ****ORCA TERMINATED NORMALLY****
TOTAL RUN TIME: 0 days 0 hours 0 minutes 5 seconds 924 msec
