                         Program Version 3.0.3 - RELEASE   -
|  1> ! RI PBE def2-SVP def2-SVP/J NBO PAL2
|  2> % maxcore 2000
|  3> % output
|  4>     # printlevel mini
|  5>     print[ P_Basis ] 0
|  6>     print[ P_SCFInfo ] 1
|  7>     print[ P_SCFIterInfo ] 1
|  8>     print[ P_OrbEn ] 0
|  9>     print[ P_Cartesian ] 0
| 10> end
| 11> *xyz 0 1
| 12>  N        1.0476610000     0.0852250000    -0.0463980000
| 13>  C        2.4863880000    -0.0503900000     0.0349270000
| 14>  C        3.1433250000    -1.2716640000    -0.5544150000
| 15>  C        4.0978130000    -0.8812560000    -1.3972110000
| 16>  N        4.1779070000     0.5100180000    -1.4646860000
| 17>  C        3.2056260000     1.1061240000    -0.6949480000
| 18>  O        2.9866420000     2.2858130000    -0.6224750000
| 19>  H        0.5945960000    -0.6053920000     0.5380080000
| 20>  H        0.7299890000    -0.0660800000    -0.9962520000
| 21>  H        2.7674120000     0.0536220000     1.0916850000
| 22>  H        2.8921570000    -2.2920580000    -0.3075700000
| 23>  H        4.7762700000    -1.4826930000    -1.9858710000
| 24>  H        4.7564250000     1.0327210000    -2.0986950000
| 25> *
| 26>
| 27>                          ****END OF INPUT****
 Total Charge           Charge          ....    0
 Multiplicity           Mult            ....    1
 Number of Electrons    NEL             ....   52
 Basis Dimension        Dim             ....  128

MULLIKEN ATOMIC CHARGES
-----------------------
   0 N :   -0.154850
   1 C :   -0.000264
   2 C :   -0.080775
   3 C :    0.086711
   4 N :   -0.112214
   5 C :    0.065726
   6 O :   -0.148957
   7 H :    0.093514
   8 H :    0.087652
   9 H :    0.050602
  10 H :   -0.007968
  11 H :    0.005080
  12 H :    0.115744
Sum of atomic charges:   -0.0000000

LOEWDIN ATOMIC CHARGES
----------------------
   0 N :   -0.072931
   1 C :   -0.026309
   2 C :   -0.109447
   3 C :    0.012826
   4 N :    0.024335
   5 C :    0.032930
   6 O :   -0.147251
   7 H :    0.055640
   8 H :    0.053990
   9 H :    0.051767
  10 H :    0.021838
  11 H :    0.024202
  12 H :    0.078409

  Mayer bond orders larger than 0.1
B(  0-N ,  1-C ) :   1.1197 B(  0-N ,  7-H ) :   0.9658 B(  0-N ,  8-H ) :   0.9707
B(  1-C ,  2-C ) :   1.0156 B(  1-C ,  5-C ) :   0.8763 B(  1-C ,  9-H ) :   0.8660
B(  2-C ,  3-C ) :   1.7308 B(  2-C , 10-H ) :   0.9958 B(  3-C ,  4-N ) :   1.0793
B(  3-C , 11-H ) :   0.9810 B(  4-N ,  5-C ) :   1.1253 B(  4-N , 12-H ) :   0.9271
B(  5-C ,  6-O ) :   2.2124

FINAL SINGLE POINT ENERGY      -340.098738640166

DIPOLE MOMENT
-------------
                                X             Y             Z
Electronic contribution:      1.77571       3.35386      -0.76702
Nuclear contribution   :     -1.31821      -4.74881       0.27671
                        -----------------------------------------
Total Dipole Moment    :      0.45750      -1.39495      -0.49031
                        -----------------------------------------
Magnitude (a.u.)       :      1.54777
Magnitude (Debye)      :      3.93412

                             ****ORCA TERMINATED NORMALLY****
TOTAL RUN TIME: 0 days 0 hours 0 minutes 6 seconds 431 msec
