                         Program Version 3.0.3 - RELEASE   -
|  1> ! RI PBE def2-SVP def2-SVP/J NBO PAL2
|  2> % maxcore 2000
|  3> % output
|  4>     # printlevel mini
|  5>     print[ P_Basis ] 0
|  6>     print[ P_SCFInfo ] 1
|  7>     print[ P_SCFIterInfo ] 1
|  8>     print[ P_OrbEn ] 0
|  9>     print[ P_Cartesian ] 0
| 10> end
| 11> *xyz 0 1
| 12>  N        0.9695330000    -0.0637220000    -0.0575980000
| 13>  C        2.3962840000     0.0831480000     0.0686000000
| 14>  C        3.0873740000     1.1070050000     1.0089120000
| 15>  C        4.1615120000     0.0452970000     1.3168880000
| 16>  N        5.3592220000     0.2210790000     0.5252470000
| 17>  C        3.1470010000    -1.0171630000     0.8256080000
| 18>  O        3.6920790000    -2.0996880000     0.1273030000
| 19>  H        0.5663620000     0.6731040000    -0.6223360000
| 20>  H        0.5211800000    -0.0254350000     0.8503960000
| 21>  H        2.8181960000     0.1628720000    -0.9379100000
| 22>  H        2.4691410000     1.3307480000     1.8817560000
| 23>  H        3.4466010000     2.0428690000     0.5776110000
| 24>  H        4.4551850000    -0.0521730000     2.3637530000
| 25>  H        5.1222670000     0.3592720000    -0.4506680000
| 26>  H        5.9109180000    -0.6293810000     0.5547810000
| 27>  H        2.5311850000    -1.3570470000     1.6731280000
| 28>  H        2.9682810000    -2.6049840000    -0.2530600000
| 29> *
| 30>
| 31>                          ****END OF INPUT****
 Total Charge           Charge          ....    0
 Multiplicity           Mult            ....    1
 Number of Electrons    NEL             ....   56
 Basis Dimension        Dim             ....  148

MULLIKEN ATOMIC CHARGES
-----------------------
   0 N :   -0.134627
   1 C :   -0.116408
   2 C :    0.136797
   3 C :   -0.112067
   4 N :   -0.123010
   5 C :    0.137444
   6 O :   -0.242375
   7 H :    0.092847
   8 H :    0.081751
   9 H :   -0.012888
  10 H :   -0.011492
  11 H :    0.001611
  12 H :   -0.000753
  13 H :    0.074205
  14 H :    0.095301
  15 H :   -0.029856
  16 H :    0.163518
Sum of atomic charges:   -0.0000000

LOEWDIN ATOMIC CHARGES
----------------------
   0 N :   -0.094829
   1 C :   -0.024476
   2 C :   -0.050189
   3 C :   -0.001494
   4 N :   -0.085755
   5 C :    0.018301
   6 O :   -0.112479
   7 H :    0.054271
   8 H :    0.048651
   9 H :    0.016930
  10 H :    0.020737
  11 H :    0.017612
  12 H :    0.012128
  13 H :    0.047259
  14 H :    0.056306
  15 H :    0.001072
  16 H :    0.075957

  Mayer bond orders larger than 0.1
B(  0-N ,  1-C ) :   1.1616 B(  0-N ,  7-H ) :   0.9636 B(  0-N ,  8-H ) :   0.9562
B(  1-C ,  2-C ) :   1.0474 B(  1-C ,  5-C ) :   1.0132 B(  1-C ,  9-H ) :   0.8744
B(  2-C ,  3-C ) :   1.0791 B(  2-C , 10-H ) :   0.9006 B(  2-C , 11-H ) :   0.9068
B(  3-C ,  4-N ) :   1.1499 B(  3-C ,  5-C ) :   0.9681 B(  3-C , 12-H ) :   0.9101
B(  4-N , 13-H ) :   0.9671 B(  4-N , 14-H ) :   0.9626 B(  5-C ,  6-O ) :   1.1724
B(  5-C , 15-H ) :   0.8993 B(  6-O , 16-H ) :   0.9766

FINAL SINGLE POINT ENERGY      -342.454786990517

DIPOLE MOMENT
-------------
                                X             Y             Z
Electronic contribution:      0.84475      -2.50956      -0.54988
Nuclear contribution   :     -1.62420       2.53480       0.41675
                        -----------------------------------------
Total Dipole Moment    :     -0.77945       0.02523      -0.13314
                        -----------------------------------------
Magnitude (a.u.)       :      0.79114
Magnitude (Debye)      :      2.01092

                             ****ORCA TERMINATED NORMALLY****
TOTAL RUN TIME: 0 days 0 hours 0 minutes 7 seconds 218 msec
