                         Program Version 3.0.3 - RELEASE   -
|  1> ! RI PBE def2-SVP def2-SVP/J NBO PAL2
|  2> % maxcore 2000
|  3> % output
|  4>     # printlevel mini
|  5>     print[ P_Basis ] 0
|  6>     print[ P_SCFInfo ] 1
|  7>     print[ P_SCFIterInfo ] 1
|  8>     print[ P_OrbEn ] 0
|  9>     print[ P_Cartesian ] 0
| 10> end
| 11> *xyz 0 1
| 12>  N        0.9860680000     0.2003980000    -0.0848330000
| 13>  C        2.4212190000     0.0697910000    -0.0291300000
| 14>  C        3.1334370000     1.2328080000     0.6481650000
| 15>  C        4.4445630000     0.6204750000     1.1456460000
| 16>  N        4.0750270000    -0.7588590000     1.3776270000
| 17>  C        2.9506590000    -1.1520220000     0.7301800000
| 18>  O        2.4554530000    -2.2567530000     0.7395590000
| 19>  H        0.6157180000     0.2831570000     0.8562750000
| 20>  H        0.5933530000    -0.6554520000    -0.4629830000
| 21>  H        2.7912990000    -0.0378210000    -1.0580020000
| 22>  H        2.5359000000     1.5644150000     1.5033620000
| 23>  H        3.2862070000     2.0899240000    -0.0065850000
| 24>  H        4.8068420000     1.0939210000     2.0607160000
| 25>  H        5.2347680000     0.7029500000     0.3886340000
| 26>  H        4.6652740000    -1.4259210000     1.8459790000
| 27> *
| 28>
| 29>                          ****END OF INPUT****
 Total Charge           Charge          ....    0
 Multiplicity           Mult            ....    1
 Number of Electrons    NEL             ....   54
 Basis Dimension        Dim             ....  138

MULLIKEN ATOMIC CHARGES
-----------------------
   0 N :   -0.146553
   1 C :   -0.095318
   2 C :    0.011949
   3 C :    0.134690
   4 N :   -0.173991
   5 C :    0.048182
   6 O :   -0.191519
   7 H :    0.083582
   8 H :    0.096574
   9 H :    0.030398
  10 H :    0.017694
  11 H :    0.026685
  12 H :    0.020765
  13 H :    0.025703
  14 H :    0.111158
Sum of atomic charges:   -0.0000000

LOEWDIN ATOMIC CHARGES
----------------------
   0 N :   -0.085252
   1 C :   -0.033859
   2 C :   -0.037577
   3 C :    0.030724
   4 N :   -0.000259
   5 C :   -0.001216
   6 O :   -0.190769
   7 H :    0.051466
   8 H :    0.057301
   9 H :    0.036610
  10 H :    0.029919
  11 H :    0.031572
  12 H :    0.022682
  13 H :    0.017658
  14 H :    0.071000

  Mayer bond orders larger than 0.1
B(  0-N ,  1-C ) :   1.1459 B(  0-N ,  7-H ) :   0.9644 B(  0-N ,  8-H ) :   0.9581
B(  1-C ,  2-C ) :   1.0876 B(  1-C ,  5-C ) :   0.8613 B(  1-C ,  9-H ) :   0.8803
B(  2-C ,  3-C ) :   1.0751 B(  2-C , 10-H ) :   0.9239 B(  2-C , 11-H ) :   0.9312
B(  3-C ,  4-N ) :   0.9990 B(  3-C , 12-H ) :   0.9428 B(  3-C , 13-H ) :   0.9348
B(  4-N ,  5-C ) :   1.1971 B(  4-N , 14-H ) :   0.9214 B(  5-C ,  6-O ) :   2.1682

FINAL SINGLE POINT ENERGY      -341.322207786514

DIPOLE MOMENT
-------------
                                X             Y             Z
Electronic contribution:     -0.34087      -4.90837       0.48145
Nuclear contribution   :      1.22967       5.68880      -0.06652
                        -----------------------------------------
Total Dipole Moment    :      0.88880       0.78043       0.41492
                        -----------------------------------------
Magnitude (a.u.)       :      1.25347
Magnitude (Debye)      :      3.18607

                             ****ORCA TERMINATED NORMALLY****
TOTAL RUN TIME: 0 days 0 hours 0 minutes 7 seconds 397 msec
