                         Program Version 3.0.3 - RELEASE   -
|  1> ! RI PBE def2-SVP def2-SVP/J NBO PAL2
|  2> % maxcore 2000
|  3> % output
|  4>     # printlevel mini
|  5>     print[ P_Basis ] 0
|  6>     print[ P_SCFInfo ] 1
|  7>     print[ P_SCFIterInfo ] 1
|  8>     print[ P_OrbEn ] 0
|  9>     print[ P_Cartesian ] 0
| 10> end
| 11> *xyz 0 1
| 12>  N        0.9314070000     0.1992360000    -0.0744390000
| 13>  C        2.3363270000     0.0044770000    -0.0931220000
| 14>  C        3.1934910000     1.0693390000     0.0049150000
| 15>  O        2.9213200000     2.3787980000     0.1256580000
| 16>  N        4.4683920000     0.6207830000    -0.0365920000
| 17>  C        4.4579050000    -0.7523540000    -0.1636960000
| 18>  C        3.1541310000    -1.1602850000    -0.2008470000
| 19>  H        0.4859630000    -0.1198620000    -0.9252450000
| 20>  H        0.4866570000    -0.2711880000     0.7033850000
| 21>  H        1.9546580000     2.4308980000     0.1314680000
| 22>  H        5.2810090000     1.2070430000     0.0138640000
| 23>  H        5.3772980000    -1.3107240000    -0.2151820000
| 24>  H        2.8152430000    -2.1809620000    -0.2945650000
| 25> *
| 26>
| 27>                          ****END OF INPUT****
 Total Charge           Charge          ....    0
 Multiplicity           Mult            ....    1
 Number of Electrons    NEL             ....   52
 Basis Dimension        Dim             ....  128

MULLIKEN ATOMIC CHARGES
-----------------------
   0 N :   -0.145139
   1 C :   -0.111834
   2 C :    0.076884
   3 O :   -0.152089
   4 N :   -0.064680
   5 C :    0.030401
   6 C :   -0.056476
   7 H :    0.105546
   8 H :    0.106087
   9 H :    0.166241
  10 H :    0.112532
  11 H :   -0.017325
  12 H :   -0.050147
Sum of atomic charges:   -0.0000000

LOEWDIN ATOMIC CHARGES
----------------------
   0 N :   -0.077928
   1 C :   -0.137683
   2 C :    0.005718
   3 O :   -0.038910
   4 N :    0.081727
   5 C :   -0.053700
   6 C :   -0.100861
   7 H :    0.060211
   8 H :    0.060378
   9 H :    0.085791
  10 H :    0.083061
  11 H :    0.013911
  12 H :    0.018284

  Mayer bond orders larger than 0.1
B(  0-N ,  1-C ) :   1.1346 B(  0-N ,  7-H ) :   0.9609 B(  0-N ,  8-H ) :   0.9615
B(  1-C ,  2-C ) :   1.4154 B(  1-C ,  6-C ) :   1.2728 B(  2-C ,  3-O ) :   1.2841
B(  2-C ,  4-N ) :   1.2294 B(  3-O ,  9-H ) :   0.9377 B(  4-N ,  5-C ) :   1.1622
B(  4-N , 10-H ) :   0.9347 B(  5-C ,  6-C ) :   1.4709 B(  5-C , 11-H ) :   0.9861
B(  6-C , 12-H ) :   1.0339

FINAL SINGLE POINT ENERGY      -340.098386773730

DIPOLE MOMENT
-------------
                                X             Y             Z
Electronic contribution:      1.57980       2.37773       0.21796
Nuclear contribution   :     -1.64525      -2.45079      -0.22751
                        -----------------------------------------
Total Dipole Moment    :     -0.06544      -0.07306      -0.00955
                        -----------------------------------------
Magnitude (a.u.)       :      0.09855
Magnitude (Debye)      :      0.25049

                             ****ORCA TERMINATED NORMALLY****
TOTAL RUN TIME: 0 days 0 hours 0 minutes 6 seconds 188 msec
