                         Program Version 3.0.3 - RELEASE   -
|  1> ! RI PBE def2-SVP def2-SVP/J NBO PAL2
|  2> % maxcore 2000
|  3> % output
|  4>     # printlevel mini
|  5>     print[ P_Basis ] 0
|  6>     print[ P_SCFInfo ] 1
|  7>     print[ P_SCFIterInfo ] 1
|  8>     print[ P_OrbEn ] 0
|  9>     print[ P_Cartesian ] 0
| 10> end
| 11> *xyz 0 1
| 12>  N        0.8590180000    -0.0714440000     0.2351610000
| 13>  C        2.2490690000    -0.0458040000     0.0740270000
| 14>  C        3.0461520000     1.0683690000    -0.0774710000
| 15>  N        4.3399760000     0.6191920000    -0.1092190000
| 16>  O        5.4219380000     1.4275190000    -0.3108240000
| 17>  C        4.4003340000    -0.7246900000    -0.0045450000
| 18>  C        3.1045680000    -1.1746390000     0.1211510000
| 19>  H        0.4033330000     0.7463950000    -0.1408010000
| 20>  H        0.4417760000    -0.8997570000    -0.1625770000
| 21>  H        2.8189350000     2.1168990000    -0.1722620000
| 22>  H        5.6924360000     1.7255610000     0.5672120000
| 23>  H        5.3436580000    -1.2439550000    -0.0334240000
| 24>  H        2.8046190000    -2.2046470000     0.2387530000
| 25> *
| 26>
| 27>                          ****END OF INPUT****
 Total Charge           Charge          ....    0
 Multiplicity           Mult            ....    1
 Number of Electrons    NEL             ....   52
 Basis Dimension        Dim             ....  128

MULLIKEN ATOMIC CHARGES
-----------------------
   0 N :   -0.075646
   1 C :    0.011775
   2 C :   -0.014740
   3 N :   -0.034279
   4 O :   -0.177177
   5 C :    0.072795
   6 C :   -0.087522
   7 H :    0.096612
   8 H :    0.102408
   9 H :   -0.031157
  10 H :    0.188465
  11 H :   -0.009647
  12 H :   -0.041887
Sum of atomic charges:    0.0000000

LOEWDIN ATOMIC CHARGES
----------------------
   0 N :   -0.046448
   1 C :   -0.042851
   2 C :   -0.103233
   3 N :    0.134137
   4 O :   -0.045057
   5 C :   -0.046693
   6 C :   -0.119060
   7 H :    0.064153
   8 H :    0.065239
   9 H :    0.014417
  10 H :    0.084514
  11 H :    0.020278
  12 H :    0.020604

  Mayer bond orders larger than 0.1
B(  0-N ,  1-C ) :   1.1737 B(  0-N ,  7-H ) :   0.9558 B(  0-N ,  8-H ) :   0.9539
B(  1-C ,  2-C ) :   1.3871 B(  1-C ,  6-C ) :   1.3231 B(  2-C ,  3-N ) :   1.1318
B(  2-C ,  5-C ) :   0.1020 B(  2-C ,  9-H ) :   1.0008 B(  3-N ,  4-O ) :   0.9377
B(  3-N ,  5-C ) :   1.2442 B(  4-O , 10-H ) :   0.9690 B(  5-C ,  6-C ) :   1.3913
B(  5-C , 11-H ) :   0.9828 B(  6-C , 12-H ) :   1.0108

FINAL SINGLE POINT ENERGY      -340.036059016020

DIPOLE MOMENT
-------------
                                X             Y             Z
Electronic contribution:      2.54018       1.21262      -0.25064
Nuclear contribution   :     -2.54518      -0.91590       0.36401
                        -----------------------------------------
Total Dipole Moment    :     -0.00500       0.29671       0.11337
                        -----------------------------------------
Magnitude (a.u.)       :      0.31767
Magnitude (Debye)      :      0.80746

                             ****ORCA TERMINATED NORMALLY****
TOTAL RUN TIME: 0 days 0 hours 0 minutes 5 seconds 941 msec
