                         Program Version 3.0.3 - RELEASE   -
|  1> ! RI PBE def2-SVP def2-SVP/J NBO PAL2
|  2> % maxcore 2000
|  3> % output
|  4>     # printlevel mini
|  5>     print[ P_Basis ] 0
|  6>     print[ P_SCFInfo ] 1
|  7>     print[ P_SCFIterInfo ] 1
|  8>     print[ P_OrbEn ] 0
|  9>     print[ P_Cartesian ] 0
| 10> end
| 11> *xyz 0 1
| 12>  N        1.0261630000    -0.0146570000    -0.0960660000
| 13>  C        2.3759710000     0.0812750000    -0.1010920000
| 14>  C        3.0930910000     1.2158640000    -0.0924350000
| 15>  C        4.5271640000     1.1028790000    -0.1000630000
| 16>  N        5.2090280000     0.0248130000    -0.1141580000
| 17>  O        4.5102990000    -1.1724400000    -0.1232410000
| 18>  C        3.0895420000    -1.2332550000    -0.1181300000
| 19>  H        0.4488310000     0.8054200000    -0.0849690000
| 20>  H        0.5720970000    -0.9082190000    -0.1034030000
| 21>  H        2.6292330000     2.1940580000    -0.0801360000
| 22>  H        5.1413620000     1.9978820000    -0.0936220000
| 23>  H        2.7821800000    -1.8169480000     0.7629430000
| 24>  H        2.7748410000    -1.7979730000    -1.0089390000
| 25> *
| 26>
| 27>                          ****END OF INPUT****
 Total Charge           Charge          ....    0
 Multiplicity           Mult            ....    1
 Number of Electrons    NEL             ....   52
 Basis Dimension        Dim             ....  128

MULLIKEN ATOMIC CHARGES
-----------------------
   0 N :   -0.037064
   1 C :   -0.123807
   2 C :   -0.026176
   3 C :   -0.057346
   4 N :    0.026586
   5 O :   -0.291907
   6 C :    0.273608
   7 H :    0.114865
   8 H :    0.110534
   9 H :   -0.039659
  10 H :    0.005625
  11 H :    0.022540
  12 H :    0.022201
Sum of atomic charges:   -0.0000000

LOEWDIN ATOMIC CHARGES
----------------------
   0 N :    0.031162
   1 C :    0.005492
   2 C :   -0.154151
   3 C :   -0.062745
   4 N :   -0.019533
   5 O :   -0.099174
   6 C :    0.054816
   7 H :    0.077128
   8 H :    0.074645
   9 H :    0.024419
  10 H :    0.029910
  11 H :    0.019065
  12 H :    0.018965

  Mayer bond orders larger than 0.1
B(  0-N ,  1-C ) :   1.3211 B(  0-N ,  7-H ) :   0.9453 B(  0-N ,  8-H ) :   0.9470
B(  1-C ,  2-C ) :   1.6145 B(  1-C ,  6-C ) :   1.0138 B(  2-C ,  3-C ) :   1.0573
B(  2-C ,  9-H ) :   0.9760 B(  3-C ,  4-N ) :   1.8713 B(  3-C ,  5-O ) :   0.1094
B(  3-C , 10-H ) :   0.9518 B(  4-N ,  5-O ) :   0.9468 B(  5-O ,  6-C ) :   0.9766
B(  6-C , 11-H ) :   0.9185 B(  6-C , 12-H ) :   0.9184

FINAL SINGLE POINT ENERGY      -340.028928976464

DIPOLE MOMENT
-------------
                                X             Y             Z
Electronic contribution:      3.31047      -0.42936      -0.01778
Nuclear contribution   :     -5.52431       0.66531       0.03025
                        -----------------------------------------
Total Dipole Moment    :     -2.21383       0.23595       0.01247
                        -----------------------------------------
Magnitude (a.u.)       :      2.22641
Magnitude (Debye)      :      5.65907

                             ****ORCA TERMINATED NORMALLY****
TOTAL RUN TIME: 0 days 0 hours 0 minutes 6 seconds 819 msec
