                         Program Version 3.0.3 - RELEASE   -
|  1> ! RI PBE def2-SVP def2-SVP/J NBO PAL2
|  2> % maxcore 2000
|  3> % output
|  4>     # printlevel mini
|  5>     print[ P_Basis ] 0
|  6>     print[ P_SCFInfo ] 1
|  7>     print[ P_SCFIterInfo ] 1
|  8>     print[ P_OrbEn ] 0
|  9>     print[ P_Cartesian ] 0
| 10> end
| 11> *xyz 0 1
| 12>  N        0.9258130000    -0.1015020000    -0.0983340000
| 13>  C        2.3796120000    -0.1364250000    -0.0454730000
| 14>  C        3.0900880000    -1.3456640000    -0.6008150000
| 15>  C        3.9380780000    -0.9373420000    -1.5335740000
| 16>  O        3.9444340000     0.4147840000    -1.7372330000
| 17>  C        2.9918090000     0.9586470000    -0.9012180000
| 18>  C        2.6943370000     2.2469010000    -0.9315520000
| 19>  H        0.5354870000    -0.8170150000     0.5032760000
| 20>  H        0.6098640000    -0.2919380000    -1.0426350000
| 21>  H        2.6564980000     0.0200070000     1.0048180000
| 22>  H        2.9411960000    -2.3636680000    -0.2748930000
| 23>  H        4.6261340000    -1.4865030000    -2.1598740000
| 24>  H        3.1914260000     2.9230430000    -1.6142190000
| 25>  H        1.9288330000     2.6265660000    -0.2698740000
| 26> *
| 27>
| 28>                          ****END OF INPUT****
 Total Charge           Charge          ....    0
 Multiplicity           Mult            ....    1
 Number of Electrons    NEL             ....   52
 Basis Dimension        Dim             ....  133

MULLIKEN ATOMIC CHARGES
-----------------------
   0 N :   -0.156484
   1 C :    0.076967
   2 C :   -0.084471
   3 C :    0.141360
   4 O :   -0.211927
   5 C :    0.044095
   6 C :   -0.064427
   7 H :    0.089776
   8 H :    0.084402
   9 H :    0.037589
  10 H :   -0.006536
  11 H :    0.005506
  12 H :    0.022558
  13 H :    0.021590
Sum of atomic charges:   -0.0000000

LOEWDIN ATOMIC CHARGES
----------------------
   0 N :   -0.082687
   1 C :   -0.002407
   2 C :   -0.121405
   3 C :    0.047187
   4 O :   -0.033889
   5 C :    0.032797
   6 C :   -0.099584
   7 H :    0.053123
   8 H :    0.051522
   9 H :    0.039724
  10 H :    0.025473
  11 H :    0.023335
  12 H :    0.031352
  13 H :    0.035460

  Mayer bond orders larger than 0.1
B(  0-N ,  1-C ) :   1.1133 B(  0-N ,  7-H ) :   0.9644 B(  0-N ,  8-H ) :   0.9632
B(  1-C ,  2-C ) :   0.9996 B(  1-C ,  5-C ) :   0.9483 B(  1-C ,  9-H ) :   0.8686
B(  2-C ,  3-C ) :   1.7343 B(  2-C ,  4-O ) :   0.1012 B(  2-C , 10-H ) :   0.9836
B(  3-C ,  4-O ) :   1.0732 B(  3-C , 11-H ) :   0.9950 B(  4-O ,  5-C ) :   1.0776
B(  5-C ,  6-C ) :   1.9790 B(  6-C , 12-H ) :   0.9238 B(  6-C , 13-H ) :   0.9193

FINAL SINGLE POINT ENERGY      -324.028682835114

DIPOLE MOMENT
-------------
                                X             Y             Z
Electronic contribution:      2.87603      -0.30951      -1.73282
Nuclear contribution   :     -3.05150      -0.45758       1.86994
                        -----------------------------------------
Total Dipole Moment    :     -0.17547      -0.76709       0.13713
                        -----------------------------------------
Magnitude (a.u.)       :      0.79876
Magnitude (Debye)      :      2.03028

                             ****ORCA TERMINATED NORMALLY****
TOTAL RUN TIME: 0 days 0 hours 0 minutes 6 seconds 967 msec
