                         Program Version 3.0.3 - RELEASE   -
|  1> ! RI PBE def2-SVP def2-SVP/J NBO PAL2
|  2> % maxcore 2000
|  3> % output
|  4>     # printlevel mini
|  5>     print[ P_Basis ] 0
|  6>     print[ P_SCFInfo ] 1
|  7>     print[ P_SCFIterInfo ] 1
|  8>     print[ P_OrbEn ] 0
|  9>     print[ P_Cartesian ] 0
| 10> end
| 11> *xyz 0 1
| 12>  N        1.0384230000    -0.1050860000    -0.1193050000
| 13>  C        2.4715170000    -0.0095860000    -0.0035110000
| 14>  C        3.0857640000     1.0979560000     0.8639570000
| 15>  C        4.4497960000     0.5140320000     1.1692690000
| 16>  O        4.2422870000    -0.8966820000     1.2550590000
| 17>  C        3.0887050000    -1.2372490000     0.6207450000
| 18>  C        2.6104320000    -2.4742210000     0.6050100000
| 19>  H        0.6495470000     0.7240210000    -0.5486950000
| 20>  H        0.6130660000    -0.2214140000     0.7927150000
| 21>  H        2.8774610000     0.0884960000    -1.0197980000
| 22>  H        2.4994080000     1.2073050000     1.7817380000
| 23>  H        3.1341620000     2.0654950000     0.3621800000
| 24>  H        4.8805330000     0.8468690000     2.1144960000
| 25>  H        5.1680710000     0.7223120000     0.3669950000
| 26>  H        3.1295300000    -3.2847290000     1.0988120000
| 27>  H        1.6883160000    -2.6705260000     0.0769330000
| 28> *
| 29>
| 30>                          ****END OF INPUT****
 Total Charge           Charge          ....    0
 Multiplicity           Mult            ....    1
 Number of Electrons    NEL             ....   54
 Basis Dimension        Dim             ....  143

MULLIKEN ATOMIC CHARGES
-----------------------
   0 N :   -0.142523
   1 C :   -0.035547
   2 C :    0.002177
   3 C :    0.195510
   4 O :   -0.270966
   5 C :    0.041371
   6 C :   -0.084288
   7 H :    0.092478
   8 H :    0.091060
   9 H :    0.029780
  10 H :    0.009926
  11 H :    0.011770
  12 H :    0.020734
  13 H :    0.018745
  14 H :    0.010839
  15 H :    0.008933
Sum of atomic charges:    0.0000000

LOEWDIN ATOMIC CHARGES
----------------------
   0 N :   -0.076768
   1 C :   -0.012058
   2 C :   -0.067464
   3 C :    0.076437
   4 O :   -0.082434
   5 C :    0.013322
   6 C :   -0.138831
   7 H :    0.055249
   8 H :    0.053551
   9 H :    0.036143
  10 H :    0.025360
  11 H :    0.026743
  12 H :    0.021724
  13 H :    0.014994
  14 H :    0.025948
  15 H :    0.028083

  Mayer bond orders larger than 0.1
B(  0-N ,  1-C ) :   1.1541 B(  0-N ,  7-H ) :   0.9626 B(  0-N ,  8-H ) :   0.9590
B(  1-C ,  2-C ) :   1.0293 B(  1-C ,  5-C ) :   0.9535 B(  1-C ,  9-H ) :   0.8835
B(  2-C ,  3-C ) :   1.0864 B(  2-C , 10-H ) :   0.9171 B(  2-C , 11-H ) :   0.9241
B(  3-C ,  4-O ) :   0.9677 B(  3-C , 12-H ) :   0.9452 B(  3-C , 13-H ) :   0.9408
B(  4-O ,  5-C ) :   1.1343 B(  5-C ,  6-C ) :   1.9539 B(  6-C , 14-H ) :   0.9251
B(  6-C , 15-H ) :   0.9093

FINAL SINGLE POINT ENERGY      -325.246034909653

DIPOLE MOMENT
-------------
                                X             Y             Z
Electronic contribution:      1.88351      -1.84568       0.63629
Nuclear contribution   :     -2.07863       3.05456      -0.61005
                        -----------------------------------------
Total Dipole Moment    :     -0.19512       1.20888       0.02624
                        -----------------------------------------
Magnitude (a.u.)       :      1.22480
Magnitude (Debye)      :      3.11321

                             ****ORCA TERMINATED NORMALLY****
TOTAL RUN TIME: 0 days 0 hours 0 minutes 7 seconds 297 msec
