                         Program Version 3.0.3 - RELEASE   -
|  1> ! RI PBE def2-SVP def2-SVP/J NBO PAL2
|  2> % maxcore 2000
|  3> % output
|  4>     # printlevel mini
|  5>     print[ P_Basis ] 0
|  6>     print[ P_SCFInfo ] 1
|  7>     print[ P_SCFIterInfo ] 1
|  8>     print[ P_OrbEn ] 0
|  9>     print[ P_Cartesian ] 0
| 10> end
| 11> *xyz 0 1
| 12>  N        0.8742240000     0.1877590000    -0.0003370000
| 13>  C        2.2595880000     0.2282550000    -0.0266740000
| 14>  C        3.1005750000     1.2967470000    -0.0242180000
| 15>  N        2.7351360000     2.6383040000    -0.0592180000
| 16>  C        4.4264170000     0.7648820000    -0.0716250000
| 17>  C        4.2870520000    -0.5816560000    -0.0983610000
| 18>  O        2.9908430000    -0.9365650000    -0.0841100000
| 19>  H        0.4587530000    -0.1467010000    -0.8608970000
| 20>  H        0.5011130000    -0.3424590000     0.7764890000
| 21>  H        1.7534210000     2.7584100000     0.1490440000
| 22>  H        3.2997060000     3.2235810000     0.5381040000
| 23>  H        5.3534210000     1.3165820000    -0.0903770000
| 24>  H        5.0034720000    -1.3864390000    -0.1281200000
| 25> *
| 26>
| 27>                          ****END OF INPUT****
 Total Charge           Charge          ....    0
 Multiplicity           Mult            ....    1
 Number of Electrons    NEL             ....   52
 Basis Dimension        Dim             ....  128

MULLIKEN ATOMIC CHARGES
-----------------------
   0 N :   -0.085914
   1 C :   -0.060445
   2 C :   -0.053250
   3 N :   -0.045133
   4 C :   -0.061544
   5 C :    0.109256
   6 O :   -0.180263
   7 H :    0.112051
   8 H :    0.109442
   9 H :    0.094463
  10 H :    0.105780
  11 H :   -0.039200
  12 H :   -0.005243
Sum of atomic charges:    0.0000000

LOEWDIN ATOMIC CHARGES
----------------------
   0 N :   -0.059063
   1 C :   -0.062742
   2 C :   -0.051775
   3 N :   -0.037512
   4 C :   -0.103349
   5 C :    0.010851
   6 O :    0.002630
   7 H :    0.064917
   8 H :    0.064633
   9 H :    0.063492
  10 H :    0.066060
  11 H :    0.025300
  12 H :    0.016556

  Mayer bond orders larger than 0.1
B(  0-N ,  1-C ) :   1.2596 B(  0-N ,  7-H ) :   0.9517 B(  0-N ,  8-H ) :   0.9512
B(  1-C ,  2-C ) :   1.5188 B(  1-C ,  6-O ) :   1.0811 B(  2-C ,  3-N ) :   1.2359
B(  2-C ,  4-C ) :   1.2163 B(  3-N ,  9-H ) :   0.9395 B(  3-N , 10-H ) :   0.9456
B(  4-C ,  5-C ) :   1.4803 B(  4-C , 11-H ) :   1.0261 B(  5-C ,  6-O ) :   1.1675
B(  5-C , 12-H ) :   1.0035

FINAL SINGLE POINT ENERGY      -340.088494652096

DIPOLE MOMENT
-------------
                                X             Y             Z
Electronic contribution:      0.67072      -2.10602      -0.23722
Nuclear contribution   :     -0.94496       2.17368       0.61516
                        -----------------------------------------
Total Dipole Moment    :     -0.27424       0.06766       0.37794
                        -----------------------------------------
Magnitude (a.u.)       :      0.47183
Magnitude (Debye)      :      1.19929

                             ****ORCA TERMINATED NORMALLY****
TOTAL RUN TIME: 0 days 0 hours 0 minutes 6 seconds 380 msec
