                         Program Version 3.0.3 - RELEASE   -
|  1> ! RI PBE def2-SVP def2-SVP/J NBO PAL2
|  2> % maxcore 2000
|  3> % output
|  4>     # printlevel mini
|  5>     print[ P_Basis ] 0
|  6>     print[ P_SCFInfo ] 1
|  7>     print[ P_SCFIterInfo ] 1
|  8>     print[ P_OrbEn ] 0
|  9>     print[ P_Cartesian ] 0
| 10> end
| 11> *xyz 0 1
| 12>  N        0.9465160000    -0.0239130000    -0.0471320000
| 13>  C        2.3808740000     0.0716520000    -0.0459380000
| 14>  C        3.1749690000     1.1237420000     0.7734710000
| 15>  C        4.2356950000     0.0379540000     1.0348640000
| 16>  O        5.2112710000    -0.0259020000     0.0135260000
| 17>  C        3.1560760000    -1.0139640000     0.7360970000
| 18>  N        3.5818080000    -2.2630040000     0.1786540000
| 19>  H        0.5204320000     0.6974660000    -0.6147600000
| 20>  H        0.5741760000     0.0672480000     0.8907500000
| 21>  H        2.7310350000     0.0808540000    -1.0811370000
| 22>  H        2.6480460000     1.3953320000     1.6926720000
| 23>  H        3.5104930000     2.0318750000     0.2681090000
| 24>  H        4.7049270000     0.0031920000     2.0234950000
| 25>  H        5.7917850000     0.7334110000     0.1012630000
| 26>  H        2.6071480000    -1.2040180000     1.6673030000
| 27>  H        4.2021620000    -2.0945610000    -0.6039220000
| 28>  H        2.7868770000    -2.7930720000    -0.1558170000
| 29> *
| 30>
| 31>                          ****END OF INPUT****
 Total Charge           Charge          ....    0
 Multiplicity           Mult            ....    1
 Number of Electrons    NEL             ....   56
 Basis Dimension        Dim             ....  148

MULLIKEN ATOMIC CHARGES
-----------------------
   0 N :   -0.132429
   1 C :   -0.055607
   2 C :    0.110526
   3 C :    0.051198
   4 O :   -0.259551
   5 C :   -0.034122
   6 N :   -0.129497
   7 H :    0.090757
   8 H :    0.078371
   9 H :   -0.013408
  10 H :   -0.015467
  11 H :   -0.010051
  12 H :   -0.007881
  13 H :    0.157449
  14 H :   -0.012630
  15 H :    0.088626
  16 H :    0.093714
Sum of atomic charges:   -0.0000000

LOEWDIN ATOMIC CHARGES
----------------------
   0 N :   -0.092457
   1 C :   -0.018153
   2 C :   -0.070259
   3 C :    0.051463
   4 O :   -0.111823
   5 C :   -0.012376
   6 N :   -0.089117
   7 H :    0.052938
   8 H :    0.047183
   9 H :    0.017811
  10 H :    0.018790
  11 H :    0.012116
  12 H :   -0.003554
  13 H :    0.071541
  14 H :    0.020345
  15 H :    0.049468
  16 H :    0.056083

  Mayer bond orders larger than 0.1
B(  0-N ,  1-C ) :   1.1627 B(  0-N ,  7-H ) :   0.9640 B(  0-N ,  8-H ) :   0.9570
B(  1-C ,  2-C ) :   1.0339 B(  1-C ,  5-C ) :   0.9783 B(  1-C ,  9-H ) :   0.8739
B(  2-C ,  3-C ) :   1.0719 B(  2-C , 10-H ) :   0.8957 B(  2-C , 11-H ) :   0.9040
B(  3-C ,  4-O ) :   1.0887 B(  3-C ,  5-C ) :   1.0093 B(  3-C , 12-H ) :   0.9185
B(  4-O , 13-H ) :   0.9803 B(  5-C ,  6-N ) :   1.1955 B(  5-C , 14-H ) :   0.8963
B(  6-N , 15-H ) :   0.9493 B(  6-N , 16-H ) :   0.9620

FINAL SINGLE POINT ENERGY      -342.454933671016

DIPOLE MOMENT
-------------
                                X             Y             Z
Electronic contribution:      2.11492      -0.86813      -0.56195
Nuclear contribution   :     -2.31849       1.81807       0.58744
                        -----------------------------------------
Total Dipole Moment    :     -0.20358       0.94993       0.02549
                        -----------------------------------------
Magnitude (a.u.)       :      0.97184
Magnitude (Debye)      :      2.47022

                             ****ORCA TERMINATED NORMALLY****
TOTAL RUN TIME: 0 days 0 hours 0 minutes 7 seconds 662 msec
