                         Program Version 3.0.3 - RELEASE   -
|  1> ! RI PBE def2-SVP def2-SVP/J NBO PAL2
|  2> % maxcore 2000
|  3> % output
|  4>     # printlevel mini
|  5>     print[ P_Basis ] 0
|  6>     print[ P_SCFInfo ] 1
|  7>     print[ P_SCFIterInfo ] 1
|  8>     print[ P_OrbEn ] 0
|  9>     print[ P_Cartesian ] 0
| 10> end
| 11> *xyz 0 1
| 12>  N        0.8129580000     0.2509420000    -0.0617290000
| 13>  C        2.2174790000     0.0831480000    -0.0582160000
| 14>  C        3.0664530000     1.1367020000    -0.1758330000
| 15>  O        2.8375060000     2.4398220000    -0.3087810000
| 16>  O        4.3426840000     0.7578830000    -0.1491840000
| 17>  C        4.3383250000    -0.6062160000    -0.0075870000
| 18>  C        3.0711970000    -1.0665960000     0.0526910000
| 19>  H        0.3822210000    -0.0637510000     0.7981710000
| 20>  H        0.3662160000    -0.2318310000    -0.8307220000
| 21>  H        1.8741570000     2.5318220000    -0.3081870000
| 22>  H        5.3076220000    -1.0713470000     0.0311690000
| 23>  H        2.7717710000    -2.0976700000     0.1625790000
| 24> *
| 25>
| 26>                          ****END OF INPUT****
 Total Charge           Charge          ....    0
 Multiplicity           Mult            ....    1
 Number of Electrons    NEL             ....   52
 Basis Dimension        Dim             ....  123

MULLIKEN ATOMIC CHARGES
-----------------------
   0 N :   -0.138908
   1 C :   -0.131526
   2 C :    0.149969
   3 O :   -0.120990
   4 O :   -0.168309
   5 C :    0.086209
   6 C :   -0.034553
   7 H :    0.109705
   8 H :    0.110506
   9 H :    0.172315
  10 H :   -0.001544
  11 H :   -0.032873
Sum of atomic charges:   -0.0000000

LOEWDIN ATOMIC CHARGES
----------------------
   0 N :   -0.075671
   1 C :   -0.142980
   2 C :    0.028560
   3 O :   -0.010328
   4 O :    0.027092
   5 C :   -0.000012
   6 C :   -0.090848
   7 H :    0.063033
   8 H :    0.063281
   9 H :    0.093732
  10 H :    0.017548
  11 H :    0.026592

  Mayer bond orders larger than 0.1
B(  0-N ,  1-C ) :   1.1474 B(  0-N ,  7-H ) :   0.9591 B(  0-N ,  8-H ) :   0.9597
B(  1-C ,  2-C ) :   1.4639 B(  1-C ,  6-C ) :   1.1931 B(  2-C ,  3-O ) :   1.3084
B(  2-C ,  4-O ) :   1.1964 B(  3-O ,  9-H ) :   0.9390 B(  4-O ,  5-C ) :   1.0854
B(  5-C ,  6-C ) :   1.5208 B(  5-C , 10-H ) :   1.0061 B(  6-C , 11-H ) :   1.0337

FINAL SINGLE POINT ENERGY      -359.925360125884

DIPOLE MOMENT
-------------
                                X             Y             Z
Electronic contribution:      2.77847       2.57055      -0.29231
Nuclear contribution   :     -3.65700      -3.12979       0.36098
                        -----------------------------------------
Total Dipole Moment    :     -0.87852      -0.55924       0.06867
                        -----------------------------------------
Magnitude (a.u.)       :      1.04368
Magnitude (Debye)      :      2.65283

                             ****ORCA TERMINATED NORMALLY****
TOTAL RUN TIME: 0 days 0 hours 0 minutes 6 seconds 10 msec
