                         Program Version 3.0.3 - RELEASE   -
|  1> ! RI PBE def2-SVP def2-SVP/J NBO PAL2
|  2> % maxcore 2000
|  3> % output
|  4>     # printlevel mini
|  5>     print[ P_Basis ] 0
|  6>     print[ P_SCFInfo ] 1
|  7>     print[ P_SCFIterInfo ] 1
|  8>     print[ P_OrbEn ] 0
|  9>     print[ P_Cartesian ] 0
| 10> end
| 11> *xyz 0 1
| 12>  N        0.9570750000     0.1442430000    -0.0598410000
| 13>  C        2.3982780000     0.0317880000    -0.0062750000
| 14>  C        3.0628470000    -1.1791120000    -0.5931820000
| 15>  C        3.9372170000    -0.7684880000    -1.4989160000
| 16>  O        3.9981070000     0.5990350000    -1.6505940000
| 17>  C        3.0743840000     1.1610690000    -0.7991860000
| 18>  O        2.8983710000     2.3314890000    -0.7475510000
| 19>  H        0.5259120000    -0.4861420000     0.6029530000
| 20>  H        0.6106220000    -0.0922740000    -0.9815950000
| 21>  H        2.7004720000     0.1779730000     1.0383100000
| 22>  H        2.8646980000    -2.2039770000    -0.3188190000
| 23>  H        4.6093070000    -1.3177040000    -2.1415930000
| 24> *
| 25>
| 26>                          ****END OF INPUT****
 Total Charge           Charge          ....    0
 Multiplicity           Mult            ....    1
 Number of Electrons    NEL             ....   52
 Basis Dimension        Dim             ....  123

MULLIKEN ATOMIC CHARGES
-----------------------
   0 N :   -0.149961
   1 C :   -0.027449
   2 C :   -0.060086
   3 C :    0.124923
   4 O :   -0.204802
   5 C :    0.144217
   6 O :   -0.102453
   7 H :    0.099269
   8 H :    0.092815
   9 H :    0.059291
  10 H :    0.005429
  11 H :    0.018807
Sum of atomic charges:   -0.0000000

LOEWDIN ATOMIC CHARGES
----------------------
   0 N :   -0.069596
   1 C :   -0.031702
   2 C :   -0.109699
   3 C :    0.052317
   4 O :   -0.038680
   5 C :    0.057413
   6 O :   -0.085879
   7 H :    0.058609
   8 H :    0.056612
   9 H :    0.054994
  10 H :    0.028841
  11 H :    0.026770

  Mayer bond orders larger than 0.1
B(  0-N ,  1-C ) :   1.1241 B(  0-N ,  7-H ) :   0.9650 B(  0-N ,  8-H ) :   0.9683
B(  1-C ,  2-C ) :   0.9994 B(  1-C ,  5-C ) :   0.8950 B(  1-C ,  9-H ) :   0.8678
B(  2-C ,  3-C ) :   1.7525 B(  2-C , 10-H ) :   0.9921 B(  3-C ,  4-O ) :   1.0538
B(  3-C , 11-H ) :   0.9967 B(  4-O ,  5-C ) :   1.0615 B(  5-C ,  6-O ) :   2.2641

FINAL SINGLE POINT ENERGY      -359.929839565471

DIPOLE MOMENT
-------------
                                X             Y             Z
Electronic contribution:      2.67455       3.64197      -1.69364
Nuclear contribution   :     -2.87165      -5.34712       1.89114
                        -----------------------------------------
Total Dipole Moment    :     -0.19710      -1.70515       0.19750
                        -----------------------------------------
Magnitude (a.u.)       :      1.72782
Magnitude (Debye)      :      4.39178

                             ****ORCA TERMINATED NORMALLY****
TOTAL RUN TIME: 0 days 0 hours 0 minutes 6 seconds 61 msec
