                         Program Version 3.0.3 - RELEASE   -
|  1> ! RI PBE def2-SVP def2-SVP/J NBO PAL2
|  2> % maxcore 2000
|  3> % output
|  4>     # printlevel mini
|  5>     print[ P_Basis ] 0
|  6>     print[ P_SCFInfo ] 1
|  7>     print[ P_SCFIterInfo ] 1
|  8>     print[ P_OrbEn ] 0
|  9>     print[ P_Cartesian ] 0
| 10> end
| 11> *xyz 0 1
| 12>  N        0.9006580000    -0.1247350000    -0.0314010000
| 13>  C        2.3335380000    -0.0564370000    -0.0538050000
| 14>  C        3.1531770000     1.0110910000     0.7266400000
| 15>  C        4.2042080000    -0.0709610000     1.0165110000
| 16>  O        5.1665890000    -0.2033490000    -0.0120400000
| 17>  C        3.1143800000    -1.1249480000     0.7381580000
| 18>  O        3.4899960000    -2.3268790000     0.1558590000
| 19>  H        0.4793960000     0.5956430000    -0.6032150000
| 20>  H        0.5402590000    -0.0221790000     0.9094060000
| 21>  H        2.6693410000    -0.0786450000    -1.0934530000
| 22>  H        2.6397260000     1.3210600000     1.6410490000
| 23>  H        3.4904210000     1.8977670000     0.1861140000
| 24>  H        4.6816330000    -0.0798540000     2.0014080000
| 25>  H        5.7694040000     0.5423410000     0.0257680000
| 26>  H        2.5736500000    -1.3565960000     1.6618340000
| 27>  H        4.2056130000    -2.1241090000    -0.4573620000
| 28> *
| 29>
| 30>                          ****END OF INPUT****
 Total Charge           Charge          ....    0
 Multiplicity           Mult            ....    1
 Number of Electrons    NEL             ....   56
 Basis Dimension        Dim             ....  143

MULLIKEN ATOMIC CHARGES
-----------------------
   0 N :   -0.125567
   1 C :   -0.070496
   2 C :    0.109948
   3 C :    0.015685
   4 O :   -0.267102
   5 C :    0.123971
   6 O :   -0.232387
   7 H :    0.091045
   8 H :    0.078844
   9 H :   -0.006755
  10 H :   -0.012105
  11 H :   -0.005933
  12 H :   -0.004277
  13 H :    0.162932
  14 H :   -0.011970
  15 H :    0.154167
Sum of atomic charges:    0.0000000

LOEWDIN ATOMIC CHARGES
----------------------
   0 N :   -0.085778
   1 C :   -0.016339
   2 C :   -0.070913
   3 C :    0.033515
   4 O :   -0.112242
   5 C :    0.031215
   6 O :   -0.091730
   7 H :    0.053465
   8 H :    0.047606
   9 H :    0.022017
  10 H :    0.020604
  11 H :    0.014558
  12 H :   -0.003395
  13 H :    0.074677
  14 H :    0.019373
  15 H :    0.063367

  Mayer bond orders larger than 0.1
B(  0-N ,  1-C ) :   1.1717 B(  0-N ,  7-H ) :   0.9645 B(  0-N ,  8-H ) :   0.9572
B(  1-C ,  2-C ) :   1.0223 B(  1-C ,  5-C ) :   0.9767 B(  1-C ,  9-H ) :   0.8746
B(  2-C ,  3-C ) :   1.0753 B(  2-C , 10-H ) :   0.8976 B(  2-C , 11-H ) :   0.9000
B(  3-C ,  4-O ) :   1.0752 B(  3-C ,  5-C ) :   0.9992 B(  3-C , 12-H ) :   0.9245
B(  4-O , 13-H ) :   0.9768 B(  5-C ,  6-O ) :   1.1705 B(  5-C , 14-H ) :   0.9078
B(  6-O , 15-H ) :   0.9631

FINAL SINGLE POINT ENERGY      -362.297345875811

DIPOLE MOMENT
-------------
                                X             Y             Z
Electronic contribution:      2.11576      -2.93422      -0.88144
Nuclear contribution   :     -1.80212       4.26698       1.10509
                        -----------------------------------------
Total Dipole Moment    :      0.31364       1.33276       0.22365
                        -----------------------------------------
Magnitude (a.u.)       :      1.38731
Magnitude (Debye)      :      3.52626

                             ****ORCA TERMINATED NORMALLY****
TOTAL RUN TIME: 0 days 0 hours 0 minutes 6 seconds 785 msec
