                         Program Version 3.0.3 - RELEASE   -
|  1> ! RI PBE def2-SVP def2-SVP/J NBO PAL2
|  2> % maxcore 2000
|  3> % output
|  4>     # printlevel mini
|  5>     print[ P_Basis ] 0
|  6>     print[ P_SCFInfo ] 1
|  7>     print[ P_SCFIterInfo ] 1
|  8>     print[ P_OrbEn ] 0
|  9>     print[ P_Cartesian ] 0
| 10> end
| 11> *xyz 0 1
| 12>  N        1.0545670000     0.0446120000    -0.1312610000
| 13>  C        2.4784520000     0.1562300000     0.0080000000
| 14>  C        3.0984100000     1.2778370000     0.8417980000
| 15>  C        4.4594740000     0.6845350000     1.1623100000
| 16>  O        4.2335290000    -0.7247910000     1.2833470000
| 17>  C        3.0810090000    -1.0751680000     0.6723760000
| 18>  O        2.6475590000    -2.1841420000     0.7039430000
| 19>  H        0.6318510000     0.9257870000    -0.3869350000
| 20>  H        0.6197290000    -0.3001580000     0.7141220000
| 21>  H        2.9270830000     0.1912300000    -0.9968150000
| 22>  H        2.5152120000     1.4222200000     1.7564600000
| 23>  H        3.1648610000     2.2313720000     0.3164770000
| 24>  H        4.8920530000     1.0312230000     2.1003180000
| 25>  H        5.1810010000     0.8556040000     0.3568700000
| 26> *
| 27>
| 28>                          ****END OF INPUT****
 Total Charge           Charge          ....    0
 Multiplicity           Mult            ....    1
 Number of Electrons    NEL             ....   54
 Basis Dimension        Dim             ....  133

MULLIKEN ATOMIC CHARGES
-----------------------
   0 N :   -0.130048
   1 C :   -0.121615
   2 C :    0.004687
   3 C :    0.178682
   4 O :   -0.246502
   5 C :    0.111755
   6 O :   -0.132582
   7 H :    0.094547
   8 H :    0.095617
   9 H :    0.043390
  10 H :    0.015100
  11 H :    0.022907
  12 H :    0.032631
  13 H :    0.031430
Sum of atomic charges:   -0.0000000

LOEWDIN ATOMIC CHARGES
----------------------
   0 N :   -0.074556
   1 C :   -0.044454
   2 C :   -0.066393
   3 C :    0.078338
   4 O :   -0.065434
   5 C :    0.030770
   6 O :   -0.116567
   7 H :    0.056401
   8 H :    0.056258
   9 H :    0.042236
  10 H :    0.026819
  11 H :    0.029500
  12 H :    0.026208
  13 H :    0.020875

  Mayer bond orders larger than 0.1
B(  0-N ,  1-C ) :   1.1727 B(  0-N ,  7-H ) :   0.9649 B(  0-N ,  8-H ) :   0.9580
B(  1-C ,  2-C ) :   1.0292 B(  1-C ,  5-C ) :   0.9005 B(  1-C ,  9-H ) :   0.8812
B(  2-C ,  3-C ) :   1.0749 B(  2-C , 10-H ) :   0.9190 B(  2-C , 11-H ) :   0.9265
B(  3-C ,  4-O ) :   0.9528 B(  3-C , 12-H ) :   0.9476 B(  3-C , 13-H ) :   0.9429
B(  4-O ,  5-C ) :   1.1478 B(  5-C ,  6-O ) :   2.2276

FINAL SINGLE POINT ENERGY      -361.150654900983

DIPOLE MOMENT
-------------
                                X             Y             Z
Electronic contribution:      1.02364      -5.80718       0.73826
Nuclear contribution   :     -0.94699       7.68294      -0.66534
                        -----------------------------------------
Total Dipole Moment    :      0.07664       1.87576       0.07292
                        -----------------------------------------
Magnitude (a.u.)       :      1.87874
Magnitude (Debye)      :      4.77539

                             ****ORCA TERMINATED NORMALLY****
TOTAL RUN TIME: 0 days 0 hours 0 minutes 6 seconds 89 msec
