                         Program Version 3.0.3 - RELEASE   -
|  1> ! RI PBE def2-SVP def2-SVP/J NBO PAL2
|  2> % maxcore 2000
|  3> % output
|  4>     # printlevel mini
|  5>     print[ P_Basis ] 0
|  6>     print[ P_SCFInfo ] 1
|  7>     print[ P_SCFIterInfo ] 1
|  8>     print[ P_OrbEn ] 0
|  9>     print[ P_Cartesian ] 0
| 10> end
| 11> *xyz 0 1
| 12>  N        0.9859680000     0.1406800000     0.2757760000
| 13>  C        2.4308240000     0.0387210000     0.1052120000
| 14>  C        2.9377610000    -1.3468410000    -0.3173790000
| 15>  C        2.5972440000    -1.6367500000    -1.7672720000
| 16>  O        3.1089980000    -0.6484170000    -2.6320070000
| 17>  C        2.5788780000     0.6252890000    -2.3383120000
| 18>  C        2.9082440000     1.0631340000    -0.9217090000
| 19>  H        0.6649080000    -0.5243140000     0.9693220000
| 20>  H        0.4991590000    -0.0805390000    -0.5842670000
| 21>  H        2.8729150000     0.2913770000     1.0743810000
| 22>  H        2.5087630000    -2.1206230000     0.3283780000
| 23>  H        4.0260590000    -1.3889870000    -0.1990290000
| 24>  H        1.5045220000    -1.7139400000    -1.8982990000
| 25>  H        3.0299160000    -2.5855360000    -2.0908160000
| 26>  H        1.4881930000     0.6186170000    -2.5019870000
| 27>  H        3.0091500000     1.3138790000    -3.0682350000
| 28>  H        2.4512890000     2.0339370000    -0.7123050000
| 29>  H        3.9937270000     1.1748230000    -0.8397510000
| 30> *
| 31>
| 32>                          ****END OF INPUT****
 Total Charge           Charge          ....    0
 Multiplicity           Mult            ....    1
 Number of Electrons    NEL             ....   56
 Basis Dimension        Dim             ....  153

MULLIKEN ATOMIC CHARGES
-----------------------
   0 N :   -0.155599
   1 C :   -0.081535
   2 C :    0.009691
   3 C :    0.195642
   4 O :   -0.343405
   5 C :    0.170264
   6 C :    0.022206
   7 H :    0.084471
   8 H :    0.075335
   9 H :    0.001591
  10 H :   -0.002146
  11 H :    0.010459
  12 H :   -0.028548
  13 H :    0.011408
  14 H :   -0.013044
  15 H :    0.017015
  16 H :    0.011630
  17 H :    0.014563
Sum of atomic charges:   -0.0000000

LOEWDIN ATOMIC CHARGES
----------------------
   0 N :   -0.092704
   1 C :   -0.003261
   2 C :   -0.072875
   3 C :    0.056208
   4 O :   -0.147862
   5 C :    0.055747
   6 C :   -0.057240
   7 H :    0.050808
   8 H :    0.039288
   9 H :    0.021395
  10 H :    0.021474
  11 H :    0.026797
  12 H :   -0.003814
  13 H :    0.022352
  14 H :    0.001698
  15 H :    0.024026
  16 H :    0.029418
  17 H :    0.028547

  Mayer bond orders larger than 0.1
B(  0-N ,  1-C ) :   1.1050 B(  0-N ,  7-H ) :   0.9657 B(  0-N ,  8-H ) :   0.9678
B(  1-C ,  2-C ) :   1.0323 B(  1-C ,  6-C ) :   1.0620 B(  1-C ,  9-H ) :   0.9176
B(  2-C ,  3-C ) :   1.0833 B(  2-C , 10-H ) :   0.9184 B(  2-C , 11-H ) :   0.9083
B(  3-C ,  4-O ) :   1.0233 B(  3-C , 12-H ) :   0.9104 B(  3-C , 13-H ) :   0.9415
B(  4-O ,  5-C ) :   1.0250 B(  5-C ,  6-C ) :   1.0890 B(  5-C , 14-H ) :   0.9187
B(  5-C , 15-H ) :   0.9407 B(  6-C , 16-H ) :   0.9140 B(  6-C , 17-H ) :   0.9197

FINAL SINGLE POINT ENERGY      -326.456959936095

DIPOLE MOMENT
-------------
                                X             Y             Z
Electronic contribution:      1.00251      -0.21679      -2.03669
Nuclear contribution   :     -1.20962      -0.09678       2.35315
                        -----------------------------------------
Total Dipole Moment    :     -0.20711      -0.31358       0.31647
                        -----------------------------------------
Magnitude (a.u.)       :      0.49130
Magnitude (Debye)      :      1.24879

                             ****ORCA TERMINATED NORMALLY****
TOTAL RUN TIME: 0 days 0 hours 0 minutes 7 seconds 369 msec
