                         Program Version 3.0.3 - RELEASE   -
|  1> ! RI PBE def2-SVP def2-SVP/J NBO PAL2
|  2> % maxcore 2000
|  3> % output
|  4>     # printlevel mini
|  5>     print[ P_Basis ] 0
|  6>     print[ P_SCFInfo ] 1
|  7>     print[ P_SCFIterInfo ] 1
|  8>     print[ P_OrbEn ] 0
|  9>     print[ P_Cartesian ] 0
| 10> end
| 11> *xyz 0 1
| 12>  N        1.1056630000     0.1058070000     0.1989640000
| 13>  C        2.4424220000     0.0410710000     0.0615100000
| 14>  C        3.2230960000    -1.0623710000    -0.0332720000
| 15>  C        4.6130160000    -0.6839830000    -0.1701330000
| 16>  O        5.5783480000    -1.4083910000    -0.2784200000
| 17>  C        4.6820140000     0.8448740000    -0.1566370000
| 18>  C        3.2391940000     1.3140680000    -0.0024690000
| 19>  H        0.5463670000    -0.7256390000     0.2447220000
| 20>  H        0.6376840000     0.9903020000     0.2587430000
| 21>  H        2.8879900000    -2.0907300000    -0.0129860000
| 22>  H        5.1472590000     1.1888760000    -1.0823240000
| 23>  H        5.3264080000     1.1655230000     0.6641010000
| 24>  H        2.8993110000     1.9284940000    -0.8426750000
| 25>  H        3.0783260000     1.9041900000     0.9057550000
| 26> *
| 27>
| 28>                          ****END OF INPUT****
 Total Charge           Charge          ....    0
 Multiplicity           Mult            ....    1
 Number of Electrons    NEL             ....   52
 Basis Dimension        Dim             ....  133

MULLIKEN ATOMIC CHARGES
-----------------------
   0 N :   -0.001294
   1 C :   -0.146616
   2 C :   -0.032660
   3 C :   -0.027952
   4 O :   -0.188880
   5 C :    0.021359
   6 C :    0.064405
   7 H :    0.117046
   8 H :    0.109407
   9 H :   -0.042167
  10 H :    0.031830
  11 H :    0.034981
  12 H :    0.031057
  13 H :    0.029484
Sum of atomic charges:   -0.0000000

LOEWDIN ATOMIC CHARGES
----------------------
   0 N :    0.036381
   1 C :    0.025855
   2 C :   -0.143030
   3 C :    0.021532
   4 O :   -0.169962
   5 C :   -0.060097
   6 C :   -0.040131
   7 H :    0.079798
   8 H :    0.074645
   9 H :    0.022205
  10 H :    0.040305
  11 H :    0.041001
  12 H :    0.035907
  13 H :    0.035592

  Mayer bond orders larger than 0.1
B(  0-N ,  1-C ) :   1.3473 B(  0-N ,  7-H ) :   0.9419 B(  0-N ,  8-H ) :   0.9430
B(  1-C ,  2-C ) :   1.4792 B(  1-C ,  3-C ) :   0.1132 B(  1-C ,  6-C ) :   1.0645
B(  2-C ,  3-C ) :   1.0519 B(  2-C ,  9-H ) :   1.0179 B(  3-C ,  4-O ) :   2.1260
B(  3-C ,  5-C ) :   1.0100 B(  5-C ,  6-C ) :   1.0906 B(  5-C , 10-H ) :   0.9095
B(  5-C , 11-H ) :   0.9090 B(  6-C , 12-H ) :   0.8999 B(  6-C , 13-H ) :   0.9002

FINAL SINGLE POINT ENERGY      -324.091805989264

DIPOLE MOMENT
-------------
                                X             Y             Z
Electronic contribution:      1.84791      -3.69148      -0.23788
Nuclear contribution   :     -3.99205       4.83127       0.47304
                        -----------------------------------------
Total Dipole Moment    :     -2.14414       1.13979       0.23516
                        -----------------------------------------
Magnitude (a.u.)       :      2.43962
Magnitude (Debye)      :      6.20103

                             ****ORCA TERMINATED NORMALLY****
TOTAL RUN TIME: 0 days 0 hours 0 minutes 6 seconds 980 msec
