                         Program Version 3.0.3 - RELEASE   -
|  1> ! RI PBE def2-SVP def2-SVP/J NBO PAL2
|  2> % maxcore 2000
|  3> % output
|  4>     # printlevel mini
|  5>     print[ P_Basis ] 0
|  6>     print[ P_SCFInfo ] 1
|  7>     print[ P_SCFIterInfo ] 1
|  8>     print[ P_OrbEn ] 0
|  9>     print[ P_Cartesian ] 0
| 10> end
| 11> *xyz 0 1
| 12>  N        1.1118340000     0.1193530000    -0.0510780000
| 13>  C        2.4496150000    -0.0040510000    -0.0499670000
| 14>  C        3.2251390000    -1.1163610000    -0.0484260000
| 15>  C        4.6135160000    -0.6746510000    -0.0471900000
| 16>  O        5.6275210000    -1.3345000000    -0.0467110000
| 17>  C        4.5795360000     0.8470940000    -0.0499990000
| 18>  C        3.3073480000     1.2214960000    -0.0506240000
| 19>  H        0.5158740000    -0.6877480000    -0.0506490000
| 20>  H        0.6790950000     1.0236150000    -0.0520190000
| 21>  H        2.9123500000    -2.1487640000    -0.0478470000
| 22>  H        5.4676370000     1.4620840000    -0.0506700000
| 23>  H        2.9059460000     2.2277120000    -0.0520300000
| 24> *
| 25>
| 26>                          ****END OF INPUT****
 Total Charge           Charge          ....    0
 Multiplicity           Mult            ....    1
 Number of Electrons    NEL             ....   50
 Basis Dimension        Dim             ....  123

MULLIKEN ATOMIC CHARGES
-----------------------
   0 N :    0.009454
   1 C :   -0.010897
   2 C :   -0.111411
   3 C :    0.083677
   4 O :   -0.152862
   5 C :   -0.015915
   6 C :    0.034707
   7 H :    0.122901
   8 H :    0.114081
   9 H :   -0.042253
  10 H :   -0.009093
  11 H :   -0.022389
Sum of atomic charges:   -0.0000000

LOEWDIN ATOMIC CHARGES
----------------------
   0 N :    0.054519
   1 C :    0.025457
   2 C :   -0.174597
   3 C :    0.036089
   4 O :   -0.121990
   5 C :   -0.026351
   6 C :   -0.026074
   7 H :    0.082759
   8 H :    0.076901
   9 H :    0.021582
  10 H :    0.030015
  11 H :    0.021690

  Mayer bond orders larger than 0.1
B(  0-N ,  1-C ) :   1.3310 B(  0-N ,  7-H ) :   0.9446 B(  0-N ,  8-H ) :   0.9407
B(  1-C ,  2-C ) :   1.4724 B(  1-C ,  6-C ) :   0.9945 B(  2-C ,  3-C ) :   1.0328
B(  2-C ,  9-H ) :   1.0339 B(  3-C ,  4-O ) :   2.0945 B(  3-C ,  5-C ) :   0.9499
B(  5-C ,  6-C ) :   1.7307 B(  5-C , 10-H ) :   0.9966 B(  6-C , 11-H ) :   0.9896

FINAL SINGLE POINT ENERGY      -322.858186241181

DIPOLE MOMENT
-------------
                                X             Y             Z
Electronic contribution:      2.78155      -1.45908       0.00481
Nuclear contribution   :     -4.87067       2.46018      -0.00693
                        -----------------------------------------
Total Dipole Moment    :     -2.08912       1.00110      -0.00212
                        -----------------------------------------
Magnitude (a.u.)       :      2.31660
Magnitude (Debye)      :      5.88833

                             ****ORCA TERMINATED NORMALLY****
TOTAL RUN TIME: 0 days 0 hours 0 minutes 6 seconds 381 msec
