                         Program Version 3.0.3 - RELEASE   -
|  1> ! RI PBE def2-SVP def2-SVP/J NBO PAL2
|  2> % maxcore 2000
|  3> % output
|  4>     # printlevel mini
|  5>     print[ P_Basis ] 0
|  6>     print[ P_SCFInfo ] 1
|  7>     print[ P_SCFIterInfo ] 1
|  8>     print[ P_OrbEn ] 0
|  9>     print[ P_Cartesian ] 0
| 10> end
| 11> *xyz 0 1
| 12>  N        0.7877920000    -0.1052810000     0.1246710000
| 13>  C        2.1875890000    -0.0732430000    -0.2485680000
| 14>  C        3.1079070000    -0.0880530000     0.9494230000
| 15>  C        2.9113570000     1.1031310000     1.8765140000
| 16>  O        1.6574280000     1.1038340000     2.5115890000
| 17>  C        2.6426380000    -0.7264920000    -1.5226350000
| 18>  C        2.5538380000     0.7747340000    -1.4199290000
| 19>  H        0.5188300000    -1.0391830000     0.4160570000
| 20>  H        0.1944210000     0.1539940000    -0.6528910000
| 21>  H        4.1442610000    -0.1043690000     0.5974600000
| 22>  H        2.9509450000    -1.0119200000     1.5200900000
| 23>  H        3.0656300000     2.0318810000     1.3037260000
| 24>  H        3.6700720000     1.0822370000     2.6645260000
| 25>  H        1.0135130000     0.8830090000     1.8172590000
| 26>  H        1.8937440000    -1.2308290000    -2.1224290000
| 27>  H        3.6259290000    -1.1813060000    -1.5520290000
| 28>  H        1.7567000000     1.2726990000    -1.9605510000
| 29>  H        3.4750190000     1.3427560000    -1.3719820000
| 30> *
| 31>
| 32>                          ****END OF INPUT****
 Total Charge           Charge          ....    0
 Multiplicity           Mult            ....    1
 Number of Electrons    NEL             ....   56
 Basis Dimension        Dim             ....  153

MULLIKEN ATOMIC CHARGES
-----------------------
   0 N :   -0.120504
   1 C :   -0.245255
   2 C :    0.055983
   3 C :    0.221249
   4 O :   -0.304460
   5 C :   -0.003749
   6 C :   -0.005966
   7 H :    0.106875
   8 H :    0.089652
   9 H :   -0.015470
  10 H :    0.006076
  11 H :   -0.028772
  12 H :    0.000886
  13 H :    0.128521
  14 H :    0.019042
  15 H :    0.028042
  16 H :    0.028160
  17 H :    0.039691
Sum of atomic charges:    0.0000000

LOEWDIN ATOMIC CHARGES
----------------------
   0 N :   -0.044987
   1 C :   -0.028347
   2 C :   -0.052219
   3 C :    0.057543
   4 O :   -0.141122
   5 C :   -0.058839
   6 C :   -0.044923
   7 H :    0.061559
   8 H :    0.057293
   9 H :    0.029143
  10 H :    0.024720
  11 H :   -0.002218
  12 H :    0.015805
  13 H :    0.024324
  14 H :    0.021890
  15 H :    0.025912
  16 H :    0.025375
  17 H :    0.029091

  Mayer bond orders larger than 0.1
B(  0-N ,  1-C ) :   1.0768 B(  0-N ,  7-H ) :   0.9569 B(  0-N ,  8-H ) :   0.9475
B(  0-N , 13-H ) :   0.1515 B(  1-C ,  2-C ) :   1.0673 B(  1-C ,  5-C ) :   0.9707
B(  1-C ,  6-C ) :   0.9833 B(  2-C ,  3-C ) :   1.0849 B(  2-C ,  9-H ) :   0.8897
B(  2-C , 10-H ) :   0.9162 B(  3-C ,  4-O ) :   1.0938 B(  3-C , 11-H ) :   0.9205
B(  3-C , 12-H ) :   0.9350 B(  4-O , 13-H ) :   0.9414 B(  5-C ,  6-C ) :   1.0205
B(  5-C , 14-H ) :   0.9406 B(  5-C , 15-H ) :   0.9356 B(  6-C , 16-H ) :   0.9403
B(  6-C , 17-H ) :   0.9423

FINAL SINGLE POINT ENERGY      -326.436307477159

DIPOLE MOMENT
-------------
                                X             Y             Z
Electronic contribution:     -1.79241       0.43739       2.12587
Nuclear contribution   :      1.70414      -1.01812      -3.24954
                        -----------------------------------------
Total Dipole Moment    :     -0.08827      -0.58073      -1.12367
                        -----------------------------------------
Magnitude (a.u.)       :      1.26794
Magnitude (Debye)      :      3.22285

                             ****ORCA TERMINATED NORMALLY****
TOTAL RUN TIME: 0 days 0 hours 0 minutes 8 seconds 77 msec
