                         Program Version 3.0.3 - RELEASE   -
|  1> ! RI PBE def2-SVP def2-SVP/J NBO PAL2
|  2> % maxcore 2000
|  3> % output
|  4>     # printlevel mini
|  5>     print[ P_Basis ] 0
|  6>     print[ P_SCFInfo ] 1
|  7>     print[ P_SCFIterInfo ] 1
|  8>     print[ P_OrbEn ] 0
|  9>     print[ P_Cartesian ] 0
| 10> end
| 11> *xyz 0 1
| 12>  N        0.9500500000    -0.0207220000    -0.1383070000
| 13>  C        2.4031130000     0.0483150000     0.0357390000
| 14>  C        2.8779990000     1.2557050000     0.7910370000
| 15>  C        3.4900140000     1.1790370000     1.9677260000
| 16>  O        3.8224480000     0.0190890000     2.5914500000
| 17>  C        3.4927240000    -1.1243970000     1.9331580000
| 18>  C        2.8722570000    -1.1737270000     0.7605150000
| 19>  H        0.6255250000     0.7354730000    -0.7304270000
| 20>  H        0.4970860000     0.0864590000     0.7626390000
| 21>  H        2.8182790000     0.0528780000    -0.9810160000
| 22>  H        2.6784260000     2.2416620000     0.3857720000
| 23>  H        3.7992810000     2.0367740000     2.5509290000
| 24>  H        3.8128200000    -1.9970160000     2.4872420000
| 25>  H        2.6545800000    -2.1430400000     0.3294530000
| 26> *
| 27>
| 28>                          ****END OF INPUT****
 Total Charge           Charge          ....    0
 Multiplicity           Mult            ....    1
 Number of Electrons    NEL             ....   52
 Basis Dimension        Dim             ....  133

MULLIKEN ATOMIC CHARGES
-----------------------
   0 N :   -0.180175
   1 C :    0.153118
   2 C :   -0.113205
   3 C :    0.119700
   4 O :   -0.200831
   5 C :    0.123219
   6 C :   -0.092942
   7 H :    0.082190
   8 H :    0.081635
   9 H :    0.010309
  10 H :   -0.004877
  11 H :    0.008162
  12 H :    0.009075
  13 H :    0.004620
Sum of atomic charges:   -0.0000000

LOEWDIN ATOMIC CHARGES
----------------------
   0 N :   -0.090005
   1 C :    0.000508
   2 C :   -0.105088
   3 C :    0.031310
   4 O :   -0.019652
   5 C :    0.032574
   6 C :   -0.082695
   7 H :    0.048374
   8 H :    0.046686
   9 H :    0.027078
  10 H :    0.027756
  11 H :    0.023860
  12 H :    0.025116
  13 H :    0.034177

  Mayer bond orders larger than 0.1
B(  0-N ,  1-C ) :   1.0646 B(  0-N ,  7-H ) :   0.9656 B(  0-N ,  8-H ) :   0.9666
B(  1-C ,  2-C ) :   1.0022 B(  1-C ,  6-C ) :   1.0328 B(  1-C ,  9-H ) :   0.8841
B(  2-C ,  3-C ) :   1.7903 B(  2-C , 10-H ) :   0.9507 B(  3-C ,  4-O ) :   1.1029
B(  3-C , 11-H ) :   0.9708 B(  4-O ,  5-C ) :   1.0962 B(  5-C ,  6-C ) :   1.7965
B(  5-C , 12-H ) :   0.9711 B(  6-C , 13-H ) :   0.9529

FINAL SINGLE POINT ENERGY      -324.035712001231

DIPOLE MOMENT
-------------
                                X             Y             Z
Electronic contribution:      2.53758      -0.31869       2.90325
Nuclear contribution   :     -2.63326       0.72975      -2.93560
                        -----------------------------------------
Total Dipole Moment    :     -0.09567       0.41106      -0.03234
                        -----------------------------------------
Magnitude (a.u.)       :      0.42329
Magnitude (Debye)      :      1.07591

                             ****ORCA TERMINATED NORMALLY****
TOTAL RUN TIME: 0 days 0 hours 0 minutes 6 seconds 743 msec
