                         Program Version 3.0.3 - RELEASE   -
|  1> ! RI PBE def2-SVP def2-SVP/J NBO PAL2
|  2> % maxcore 2000
|  3> % output
|  4>     # printlevel mini
|  5>     print[ P_Basis ] 0
|  6>     print[ P_SCFInfo ] 1
|  7>     print[ P_SCFIterInfo ] 1
|  8>     print[ P_OrbEn ] 0
|  9>     print[ P_Cartesian ] 0
| 10> end
| 11> *xyz 0 1
| 12>  N        0.9318860000    -0.0217550000    -0.1024050000
| 13>  C        2.3969750000    -0.0330210000    -0.1158460000
| 14>  C        2.9310830000    -1.3035930000     0.5581140000
| 15>  C        3.2434910000    -0.9206570000     2.0131770000
| 16>  O        4.3782920000    -1.5692240000     2.5532890000
| 17>  C        3.3586920000     0.5759100000     1.9423870000
| 18>  C        2.9213310000     1.0542450000     0.7852900000
| 19>  H        0.5738270000    -0.6772160000    -0.7878090000
| 20>  H        0.5832050000     0.8928960000    -0.3644700000
| 21>  H        2.8010180000     0.0742410000    -1.1343150000
| 22>  H        3.8686580000    -1.6076910000     0.0822610000
| 23>  H        2.2325380000    -2.1380310000     0.4780540000
| 24>  H        2.4257340000    -1.2020110000     2.6842470000
| 25>  H        5.1432470000    -1.3035960000     2.0338410000
| 26>  H        3.7319480000     1.1621970000     2.7746390000
| 27>  H        2.8753540000     2.1044150000     0.5159450000
| 28> *
| 29>
| 30>                          ****END OF INPUT****
 Total Charge           Charge          ....    0
 Multiplicity           Mult            ....    1
 Number of Electrons    NEL             ....   54
 Basis Dimension        Dim             ....  143

MULLIKEN ATOMIC CHARGES
-----------------------
   0 N :   -0.179756
   1 C :   -0.023110
   2 C :    0.097607
   3 C :    0.148446
   4 O :   -0.273727
   5 C :   -0.064935
   6 C :   -0.012647
   7 H :    0.087291
   8 H :    0.082947
   9 H :   -0.008928
  10 H :   -0.011327
  11 H :    0.003037
  12 H :    0.021137
  13 H :    0.146453
  14 H :   -0.004626
  15 H :   -0.007862
Sum of atomic charges:   -0.0000000

LOEWDIN ATOMIC CHARGES
----------------------
   0 N :   -0.106603
   1 C :    0.001887
   2 C :   -0.046114
   3 C :    0.047639
   4 O :   -0.111057
   5 C :   -0.040849
   6 C :   -0.030766
   7 H :    0.050702
   8 H :    0.049288
   9 H :    0.000564
  10 H :    0.022848
  11 H :    0.026349
  12 H :    0.031104
  13 H :    0.061929
  14 H :    0.023588
  15 H :    0.019489

  Mayer bond orders larger than 0.1
B(  0-N ,  1-C ) :   1.0315 B(  0-N ,  7-H ) :   0.9625 B(  0-N ,  8-H ) :   0.9613
B(  1-C ,  2-C ) :   1.0533 B(  1-C ,  6-C ) :   1.0023 B(  1-C ,  9-H ) :   0.9036
B(  2-C ,  3-C ) :   1.0510 B(  2-C , 10-H ) :   0.9142 B(  2-C , 11-H ) :   0.9137
B(  3-C ,  4-O ) :   1.0522 B(  3-C ,  5-C ) :   1.0124 B(  3-C , 12-H ) :   0.8852
B(  4-O , 13-H ) :   0.9823 B(  5-C ,  6-C ) :   1.8353 B(  5-C , 14-H ) :   0.9859
B(  6-C , 15-H ) :   0.9809

FINAL SINGLE POINT ENERGY      -325.238826776575

DIPOLE MOMENT
-------------
                                X             Y             Z
Electronic contribution:      1.62089      -0.03186       2.39187
Nuclear contribution   :     -1.60389       0.49304      -3.28999
                        -----------------------------------------
Total Dipole Moment    :      0.01700       0.46119      -0.89812
                        -----------------------------------------
Magnitude (a.u.)       :      1.00976
Magnitude (Debye)      :      2.56660

                             ****ORCA TERMINATED NORMALLY****
TOTAL RUN TIME: 0 days 0 hours 0 minutes 7 seconds 270 msec
