                         Program Version 3.0.3 - RELEASE   -
|  1> ! RI PBE def2-SVP def2-SVP/J NBO PAL2
|  2> % maxcore 2000
|  3> % output
|  4>     # printlevel mini
|  5>     print[ P_Basis ] 0
|  6>     print[ P_SCFInfo ] 1
|  7>     print[ P_SCFIterInfo ] 1
|  8>     print[ P_OrbEn ] 0
|  9>     print[ P_Cartesian ] 0
| 10> end
| 11> *xyz 0 1
| 12>  N        0.9257600000     0.2769160000    -0.2797040000
| 13>  C        2.3322610000     0.1149130000     0.0953600000
| 14>  C        3.1277780000     1.3373740000    -0.3588490000
| 15>  C        3.3650840000     1.2506340000    -1.8488260000
| 16>  O        4.1506220000     0.1101790000    -2.1877470000
| 17>  C        3.7796200000    -1.0203790000    -1.5630560000
| 18>  C        2.9251830000    -1.1016810000    -0.5430040000
| 19>  H        0.4309860000     0.8277370000     0.4124280000
| 20>  H        0.4664130000    -0.6229160000    -0.3381290000
| 21>  H        2.4508100000     0.0093120000     1.1847270000
| 22>  H        4.0857830000     1.3777740000     0.1687270000
| 23>  H        2.5786390000     2.2547410000    -0.1300510000
| 24>  H        3.9126930000     2.1107670000    -2.2342490000
| 25>  H        2.4005670000     1.1724830000    -2.3636370000
| 26>  H        4.2768970000    -1.8876800000    -1.9837170000
| 27>  H        2.6984950000    -2.0813660000    -0.1386630000
| 28> *
| 29>
| 30>                          ****END OF INPUT****
 Total Charge           Charge          ....    0
 Multiplicity           Mult            ....    1
 Number of Electrons    NEL             ....   54
 Basis Dimension        Dim             ....  143

MULLIKEN ATOMIC CHARGES
-----------------------
   0 N :   -0.163714
   1 C :   -0.000412
   2 C :    0.019178
   3 C :    0.194476
   4 O :   -0.266244
   5 C :    0.131225
   6 C :   -0.123412
   7 H :    0.081948
   8 H :    0.084573
   9 H :    0.003935
  10 H :    0.015910
  11 H :    0.001086
  12 H :    0.014494
  13 H :    0.016542
  14 H :   -0.001199
  15 H :   -0.008387
Sum of atomic charges:   -0.0000000

LOEWDIN ATOMIC CHARGES
----------------------
   0 N :   -0.102336
   1 C :    0.000765
   2 C :   -0.055590
   3 C :    0.075262
   4 O :   -0.071277
   5 C :    0.034465
   6 C :   -0.136302
   7 H :    0.048821
   8 H :    0.050736
   9 H :    0.013673
  10 H :    0.027621
  11 H :    0.028908
  12 H :    0.021924
  13 H :    0.017574
  14 H :    0.021347
  15 H :    0.024408

  Mayer bond orders larger than 0.1
B(  0-N ,  1-C ) :   1.0717 B(  0-N ,  7-H ) :   0.9595 B(  0-N ,  8-H ) :   0.9591
B(  1-C ,  2-C ) :   1.0654 B(  1-C ,  6-C ) :   1.0180 B(  1-C ,  9-H ) :   0.9001
B(  2-C ,  3-C ) :   1.0794 B(  2-C , 10-H ) :   0.9167 B(  2-C , 11-H ) :   0.9159
B(  3-C ,  4-O ) :   0.9643 B(  3-C , 12-H ) :   0.9460 B(  3-C , 13-H ) :   0.9292
B(  4-O ,  5-C ) :   1.1677 B(  4-O ,  6-C ) :   0.1145 B(  5-C ,  6-C ) :   1.7755
B(  5-C , 14-H ) :   0.9709 B(  6-C , 15-H ) :   0.9532

FINAL SINGLE POINT ENERGY      -325.247427405277

DIPOLE MOMENT
-------------
                                X             Y             Z
Electronic contribution:      2.41557      -1.56300      -2.41623
Nuclear contribution   :     -2.78070       1.61923       2.99427
                        -----------------------------------------
Total Dipole Moment    :     -0.36513       0.05622       0.57805
                        -----------------------------------------
Magnitude (a.u.)       :      0.68602
Magnitude (Debye)      :      1.74371

                             ****ORCA TERMINATED NORMALLY****
TOTAL RUN TIME: 0 days 0 hours 0 minutes 7 seconds 616 msec
