                         Program Version 3.0.3 - RELEASE   -
|  1> ! RI PBE def2-SVP def2-SVP/J NBO PAL2
|  2> % maxcore 2000
|  3> % output
|  4>     # printlevel mini
|  5>     print[ P_Basis ] 0
|  6>     print[ P_SCFInfo ] 1
|  7>     print[ P_SCFIterInfo ] 1
|  8>     print[ P_OrbEn ] 0
|  9>     print[ P_Cartesian ] 0
| 10> end
| 11> *xyz 0 1
| 12>  N        0.9678490000    -0.0402500000     0.1998120000
| 13>  C        2.2301820000     0.0828400000     0.1070840000
| 14>  C        2.9865710000     1.3299690000     0.0353990000
| 15>  C        4.3140410000     1.2965270000    -0.0599880000
| 16>  O        5.0095460000     0.1325320000    -0.0942360000
| 17>  C        4.2621270000    -0.9971070000    -0.0247020000
| 18>  N        3.0091310000    -1.0888400000     0.0670220000
| 19>  H        0.5291050000     0.8784800000     0.2188300000
| 20>  H        2.4759750000     2.2844540000     0.0591880000
| 21>  H        4.9654920000     2.1580030000    -0.1188360000
| 22>  H        4.9014910000    -1.8739970000    -0.0587730000
| 23> *
| 24>
| 25>                          ****END OF INPUT****
 Total Charge           Charge          ....    0
 Multiplicity           Mult            ....    1
 Number of Electrons    NEL             ....   50
 Basis Dimension        Dim             ....  118

MULLIKEN ATOMIC CHARGES
-----------------------
   0 N :   -0.023575
   1 C :   -0.155224
   2 C :    0.001149
   3 C :    0.140002
   4 O :   -0.182172
   5 C :    0.145964
   6 N :   -0.066881
   7 H :    0.079188
   8 H :   -0.002149
   9 H :    0.026938
  10 H :    0.036760
Sum of atomic charges:   -0.0000000

LOEWDIN ATOMIC CHARGES
----------------------
   0 N :   -0.108330
   1 C :   -0.020659
   2 C :   -0.088771
   3 C :    0.063416
   4 O :   -0.001345
   5 C :    0.076728
   6 N :   -0.065975
   7 H :    0.045859
   8 H :    0.040820
   9 H :    0.032005
  10 H :    0.026251

  Mayer bond orders larger than 0.1
B(  0-N ,  1-C ) :   1.9677 B(  0-N ,  7-H ) :   0.9221 B(  1-C ,  2-C ) :   1.0401
B(  1-C ,  6-N ) :   1.1622 B(  2-C ,  3-C ) :   1.7025 B(  2-C ,  8-H ) :   0.9541
B(  3-C ,  4-O ) :   1.1068 B(  3-C ,  9-H ) :   0.9679 B(  4-O ,  5-C ) :   1.1008
B(  5-C ,  6-N ) :   1.8823 B(  5-C , 10-H ) :   0.9600

FINAL SINGLE POINT ENERGY      -338.874806625264

DIPOLE MOMENT
-------------
                                X             Y             Z
Electronic contribution:      1.27647      -1.63189      -0.06978
Nuclear contribution   :     -0.19464       2.82277      -0.02468
                        -----------------------------------------
Total Dipole Moment    :      1.08183       1.19088      -0.09447
                        -----------------------------------------
Magnitude (a.u.)       :      1.61167
Magnitude (Debye)      :      4.09654

                             ****ORCA TERMINATED NORMALLY****
TOTAL RUN TIME: 0 days 0 hours 0 minutes 6 seconds 141 msec
