                         Program Version 3.0.3 - RELEASE   -
|  1> ! RI PBE def2-SVP def2-SVP/J NBO PAL2
|  2> % maxcore 2000
|  3> % output
|  4>     # printlevel mini
|  5>     print[ P_Basis ] 0
|  6>     print[ P_SCFInfo ] 1
|  7>     print[ P_SCFIterInfo ] 1
|  8>     print[ P_OrbEn ] 0
|  9>     print[ P_Cartesian ] 0
| 10> end
| 11> *xyz 0 1
| 12>  N        1.2085690000    -0.2637360000     0.4892320000
| 13>  C        2.4049490000    -0.0900910000     0.1001640000
| 14>  C        3.1887550000     1.1838240000    -0.1114790000
| 15>  C        4.5558160000     0.7352390000    -0.5803040000
| 16>  O        5.4859290000     1.4344220000    -0.8617070000
| 17>  C        4.5581270000    -0.7861300000    -0.6376060000
| 18>  N        3.2336010000    -1.1299230000    -0.2124380000
| 19>  H        0.7555190000     0.6252350000     0.6721470000
| 20>  H        3.2776000000     1.7668680000     0.8086710000
| 21>  H        2.7251830000     1.8292490000    -0.8618300000
| 22>  H        5.3470680000    -1.1706630000     0.0203160000
| 23>  H        4.7915310000    -1.1081860000    -1.6598390000
| 24>  H        2.8961440000    -2.0736100000    -0.1360250000
| 25> *
| 26>
| 27>                          ****END OF INPUT****
 Total Charge           Charge          ....    0
 Multiplicity           Mult            ....    1
 Number of Electrons    NEL             ....   52
 Basis Dimension        Dim             ....  128

MULLIKEN ATOMIC CHARGES
-----------------------
   0 N :   -0.091786
   1 C :   -0.184679
   2 C :    0.104048
   3 C :   -0.146333
   4 O :   -0.128401
   5 C :    0.206997
   6 N :   -0.177395
   7 H :    0.081432
   8 H :    0.068587
   9 H :    0.069669
  10 H :    0.046004
  11 H :    0.042332
  12 H :    0.109525
Sum of atomic charges:   -0.0000000

LOEWDIN ATOMIC CHARGES
----------------------
   0 N :   -0.184249
   1 C :   -0.006964
   2 C :   -0.084878
   3 C :    0.057734
   4 O :   -0.099693
   5 C :    0.003041
   6 N :   -0.005497
   7 H :    0.046758
   8 H :    0.062860
   9 H :    0.062860
  10 H :    0.037314
  11 H :    0.036598
  12 H :    0.074116

  Mayer bond orders larger than 0.1
B(  0-N ,  1-C ) :   1.9941 B(  0-N ,  7-H ) :   0.9248 B(  1-C ,  2-C ) :   0.9310
B(  1-C ,  6-N ) :   1.1842 B(  2-C ,  3-C ) :   0.9846 B(  2-C ,  8-H ) :   0.8925
B(  2-C ,  9-H ) :   0.8939 B(  3-C ,  4-O ) :   2.2351 B(  3-C ,  5-C ) :   0.9434
B(  5-C ,  6-N ) :   1.0115 B(  5-C , 10-H ) :   0.9125 B(  5-C , 11-H ) :   0.9121
B(  6-N , 12-H ) :   0.9228

FINAL SINGLE POINT ENERGY      -340.103667615304

DIPOLE MOMENT
-------------
                                X             Y             Z
Electronic contribution:      1.47057       0.80294      -0.45627
Nuclear contribution   :     -1.30313      -1.02144       0.39313
                        -----------------------------------------
Total Dipole Moment    :      0.16744      -0.21850      -0.06313
                        -----------------------------------------
Magnitude (a.u.)       :      0.28243
Magnitude (Debye)      :      0.71787

                             ****ORCA TERMINATED NORMALLY****
TOTAL RUN TIME: 0 days 0 hours 0 minutes 6 seconds 596 msec
