                         Program Version 3.0.3 - RELEASE   -
|  1> ! RI PBE def2-SVP def2-SVP/J NBO PAL2
|  2> % maxcore 2000
|  3> % output
|  4>     # printlevel mini
|  5>     print[ P_Basis ] 0
|  6>     print[ P_SCFInfo ] 1
|  7>     print[ P_SCFIterInfo ] 1
|  8>     print[ P_OrbEn ] 0
|  9>     print[ P_Cartesian ] 0
| 10> end
| 11> *xyz 0 1
| 12>  N        1.0999540000     0.0014500000    -0.0654110000
| 13>  C        2.4182320000    -0.1811070000    -0.0651180000
| 14>  C        3.1859080000    -1.3037340000    -0.0662910000
| 15>  C        4.5483720000    -0.8365910000    -0.0652110000
| 16>  O        5.6109270000    -1.4143720000    -0.0654850000
| 17>  C        4.3916440000     0.6926800000    -0.0630870000
| 18>  N        3.1757490000     1.0517540000    -0.0631630000
| 19>  H        0.4574520000    -0.7686440000    -0.0666400000
| 20>  H        0.7495410000     0.9433480000    -0.0642630000
| 21>  H        2.8689530000    -2.3334450000    -0.0677600000
| 22>  H        5.2184580000     1.3968600000    -0.0617700000
| 23> *
| 24>
| 25>                          ****END OF INPUT****
 Total Charge           Charge          ....    0
 Multiplicity           Mult            ....    1
 Number of Electrons    NEL             ....   50
 Basis Dimension        Dim             ....  118

MULLIKEN ATOMIC CHARGES
-----------------------
   0 N :    0.044692
   1 C :   -0.015319
   2 C :   -0.100514
   3 C :    0.064835
   4 O :   -0.147572
   5 C :    0.040537
   6 N :   -0.117911
   7 H :    0.128703
   8 H :    0.128280
   9 H :   -0.035085
  10 H :    0.009355
Sum of atomic charges:   -0.0000000

LOEWDIN ATOMIC CHARGES
----------------------
   0 N :    0.076486
   1 C :    0.049813
   2 C :   -0.187739
   3 C :    0.004104
   4 O :   -0.118922
   5 C :    0.036633
   6 N :   -0.081946
   7 H :    0.087310
   8 H :    0.082903
   9 H :    0.026927
  10 H :    0.024432

  Mayer bond orders larger than 0.1
B(  0-N ,  1-C ) :   1.3609 B(  0-N ,  7-H ) :   0.9417 B(  0-N ,  8-H ) :   0.9227
B(  1-C ,  2-C ) :   1.4159 B(  1-C ,  6-N ) :   1.0943 B(  2-C ,  3-C ) :   1.0743
B(  2-C ,  9-H ) :   1.0331 B(  3-C ,  4-O ) :   2.0818 B(  3-C ,  5-C ) :   0.8880
B(  5-C ,  6-N ) :   1.9150 B(  5-C , 10-H ) :   0.9675

FINAL SINGLE POINT ENERGY      -338.886359606118

DIPOLE MOMENT
-------------
                                X             Y             Z
Electronic contribution:      2.41704      -0.01872       0.00075
Nuclear contribution   :     -4.29646       0.37930      -0.00101
                        -----------------------------------------
Total Dipole Moment    :     -1.87942       0.36057      -0.00026
                        -----------------------------------------
Magnitude (a.u.)       :      1.91370
Magnitude (Debye)      :      4.86424

                             ****ORCA TERMINATED NORMALLY****
TOTAL RUN TIME: 0 days 0 hours 0 minutes 6 seconds 72 msec
