                         Program Version 3.0.3 - RELEASE   -
|  1> ! RI PBE def2-SVP def2-SVP/J NBO PAL2
|  2> % maxcore 2000
|  3> % output
|  4>     # printlevel mini
|  5>     print[ P_Basis ] 0
|  6>     print[ P_SCFInfo ] 1
|  7>     print[ P_SCFIterInfo ] 1
|  8>     print[ P_OrbEn ] 0
|  9>     print[ P_Cartesian ] 0
| 10> end
| 11> *xyz 0 1
| 12>  N        0.9308730000     0.0587410000    -0.0126470000
| 13>  C        2.3004730000     0.1285810000    -0.0065160000
| 14>  C        3.1344840000     1.2271250000    -0.0023120000
| 15>  C        4.4649130000     0.7208640000     0.0032170000
| 16>  O        5.6128490000     1.4501710000     0.0085680000
| 17>  C        4.4186210000    -0.6411890000     0.0023260000
| 18>  N        3.0695420000    -0.9853630000    -0.0037400000
| 19>  H        0.3899270000     0.8985410000    -0.0138080000
| 20>  H        0.4477580000    -0.8161740000    -0.0140250000
| 21>  H        2.8266450000     2.2619080000    -0.0031380000
| 22>  H        5.3800800000     2.3806080000     0.0082180000
| 23>  H        5.1991590000    -1.3809100000     0.0053390000
| 24>  H        2.7240870000    -1.9259930000    -0.0057930000
| 25> *
| 26>
| 27>                          ****END OF INPUT****
 Total Charge           Charge          ....    0
 Multiplicity           Mult            ....    1
 Number of Electrons    NEL             ....   52
 Basis Dimension        Dim             ....  128

MULLIKEN ATOMIC CHARGES
-----------------------
   0 N :   -0.056162
   1 C :    0.039316
   2 C :   -0.167157
   3 C :    0.131131
   4 O :   -0.182435
   5 C :   -0.052325
   6 N :   -0.076632
   7 H :    0.111530
   8 H :    0.098963
   9 H :   -0.071062
  10 H :    0.162189
  11 H :   -0.033265
  12 H :    0.095909
Sum of atomic charges:   -0.0000000

LOEWDIN ATOMIC CHARGES
----------------------
   0 N :   -0.026542
   1 C :    0.011849
   2 C :   -0.197590
   3 C :   -0.011390
   4 O :   -0.048889
   5 C :   -0.112636
   6 N :    0.066969
   7 H :    0.074380
   8 H :    0.064620
   9 H :    0.011383
  10 H :    0.082182
  11 H :    0.012761
  12 H :    0.072904

  Mayer bond orders larger than 0.1
B(  0-N ,  1-C ) :   1.2041 B(  0-N ,  7-H ) :   0.9493 B(  0-N ,  8-H ) :   0.9500
B(  1-C ,  2-C ) :   1.3655 B(  1-C ,  6-N ) :   1.2589 B(  2-C ,  3-C ) :   1.2163
B(  2-C ,  9-H ) :   1.0145 B(  3-C ,  4-O ) :   1.1796 B(  3-C ,  5-C ) :   1.4959
B(  4-O , 10-H ) :   0.9764 B(  5-C ,  6-N ) :   1.0802 B(  5-C , 11-H ) :   0.9951
B(  6-N , 12-H ) :   0.9408

FINAL SINGLE POINT ENERGY      -340.089093880509

DIPOLE MOMENT
-------------
                                X             Y             Z
Electronic contribution:      1.88011       0.05423       0.00779
Nuclear contribution   :     -3.28120      -0.31869      -0.01278
                        -----------------------------------------
Total Dipole Moment    :     -1.40109      -0.26446      -0.00499
                        -----------------------------------------
Magnitude (a.u.)       :      1.42584
Magnitude (Debye)      :      3.62420

                             ****ORCA TERMINATED NORMALLY****
TOTAL RUN TIME: 0 days 0 hours 0 minutes 5 seconds 951 msec
