                         Program Version 3.0.3 - RELEASE   -
|  1> ! RI PBE def2-SVP def2-SVP/J NBO PAL2
|  2> % maxcore 2000
|  3> % output
|  4>     # printlevel mini
|  5>     print[ P_Basis ] 0
|  6>     print[ P_SCFInfo ] 1
|  7>     print[ P_SCFIterInfo ] 1
|  8>     print[ P_OrbEn ] 0
|  9>     print[ P_Cartesian ] 0
| 10> end
| 11> *xyz 0 1
| 12>  N        1.0617660000     0.0296300000     0.0638310000
| 13>  C        2.4120220000     0.1746500000     0.0698200000
| 14>  C        3.2320750000     1.2643810000     0.0726410000
| 15>  C        4.5580400000     0.7235190000     0.0789280000
| 16>  O        5.7201150000     1.4176690000     0.0835360000
| 17>  C        4.4554130000    -0.6232470000     0.0795080000
| 18>  O        3.1139220000    -0.9621530000     0.0738060000
| 19>  H        0.4627720000     0.8292570000     0.0612700000
| 20>  H        0.6617280000    -0.8879150000     0.0635250000
| 21>  H        2.9390530000     2.3023820000     0.0705320000
| 22>  H        5.5194530000     2.3557030000     0.0820470000
| 23>  H        5.1611430000    -1.4326760000     0.0832560000
| 24> *
| 25>
| 26>                          ****END OF INPUT****
 Total Charge           Charge          ....    0
 Multiplicity           Mult            ....    1
 Number of Electrons    NEL             ....   52
 Basis Dimension        Dim             ....  123

MULLIKEN ATOMIC CHARGES
-----------------------
   0 N :   -0.052319
   1 C :    0.126786
   2 C :   -0.184137
   3 C :    0.142253
   4 O :   -0.171272
   5 C :    0.003588
   6 O :   -0.195010
   7 H :    0.117999
   8 H :    0.121083
   9 H :   -0.055710
  10 H :    0.167773
  11 H :   -0.021033
Sum of atomic charges:    0.0000000

LOEWDIN ATOMIC CHARGES
----------------------
   0 N :   -0.007933
   1 C :    0.044814
   2 C :   -0.197908
   3 C :   -0.011877
   4 O :   -0.036013
   5 C :   -0.065398
   6 O :    0.000635
   7 H :    0.078321
   8 H :    0.076374
   9 H :    0.017733
  10 H :    0.086452
  11 H :    0.014800

  Mayer bond orders larger than 0.1
B(  0-N ,  1-C ) :   1.2302 B(  0-N ,  7-H ) :   0.9540 B(  0-N ,  8-H ) :   0.9404
B(  1-C ,  2-C ) :   1.4200 B(  1-C ,  6-O ) :   1.2114 B(  2-C ,  3-C ) :   1.1409
B(  2-C ,  9-H ) :   1.0167 B(  3-C ,  4-O ) :   1.1880 B(  3-C ,  5-C ) :   1.5240
B(  4-O , 10-H ) :   0.9736 B(  5-C ,  6-O ) :   1.0240 B(  5-C , 11-H ) :   1.0153

FINAL SINGLE POINT ENERGY      -359.922689472892

DIPOLE MOMENT
-------------
                                X             Y             Z
Electronic contribution:      1.45995      -0.97786       0.00685
Nuclear contribution   :     -2.58658       1.57645      -0.01140
                        -----------------------------------------
Total Dipole Moment    :     -1.12663       0.59859      -0.00455
                        -----------------------------------------
Magnitude (a.u.)       :      1.27578
Magnitude (Debye)      :      3.24278

                             ****ORCA TERMINATED NORMALLY****
TOTAL RUN TIME: 0 days 0 hours 0 minutes 5 seconds 581 msec
