                         Program Version 3.0.3 - RELEASE   -
|  1> ! RI PBE def2-SVP def2-SVP/J NBO PAL2
|  2> % maxcore 2000
|  3> % output
|  4>     # printlevel mini
|  5>     print[ P_Basis ] 0
|  6>     print[ P_SCFInfo ] 1
|  7>     print[ P_SCFIterInfo ] 1
|  8>     print[ P_OrbEn ] 0
|  9>     print[ P_Cartesian ] 0
| 10> end
| 11> *xyz 0 1
| 12>  N        1.1114340000     0.0015090000     0.0461420000
| 13>  C        2.4566900000    -0.0960010000    -0.0449660000
| 14>  C        3.2484130000    -1.1804350000    -0.1382470000
| 15>  C        4.6486700000    -0.7492500000    -0.2119730000
| 16>  O        5.6538170000    -1.4206700000    -0.3030630000
| 17>  N        4.6202360000     0.6286890000    -0.1565490000
| 18>  C        3.2954780000     1.1540950000    -0.0505570000
| 19>  H        0.5355490000    -0.8185570000     0.0499040000
| 20>  H        0.6583660000     0.8925630000     0.1076270000
| 21>  H        2.9552700000    -2.2187970000    -0.1596200000
| 22>  H        5.4568200000     1.1804420000    -0.1893420000
| 23>  H        3.0221770000     1.7971880000    -0.8980450000
| 24>  H        3.1364910000     1.7283350000     0.8721880000
| 25> *
| 26>
| 27>                          ****END OF INPUT****
 Total Charge           Charge          ....    0
 Multiplicity           Mult            ....    1
 Number of Electrons    NEL             ....   52
 Basis Dimension        Dim             ....  128

MULLIKEN ATOMIC CHARGES
-----------------------
   0 N :   -0.026213
   1 C :   -0.122808
   2 C :   -0.124596
   3 C :    0.109528
   4 O :   -0.203882
   5 N :   -0.206675
   6 C :    0.223028
   7 H :    0.118765
   8 H :    0.107659
   9 H :   -0.042274
  10 H :    0.102218
  11 H :    0.033465
  12 H :    0.031788
Sum of atomic charges:   -0.0000000

LOEWDIN ATOMIC CHARGES
----------------------
   0 N :    0.019869
   1 C :    0.005534
   2 C :   -0.147451
   3 C :    0.018890
   4 O :   -0.203612
   5 N :   -0.028165
   6 C :    0.031815
   7 H :    0.079040
   8 H :    0.072318
   9 H :    0.024844
  10 H :    0.068077
  11 H :    0.029544
  12 H :    0.029297

  Mayer bond orders larger than 0.1
B(  0-N ,  1-C ) :   1.3034 B(  0-N ,  7-H ) :   0.9490 B(  0-N ,  8-H ) :   0.9462
B(  1-C ,  2-C ) :   1.5886 B(  1-C ,  6-C ) :   1.0034 B(  2-C ,  3-C ) :   0.9619
B(  2-C ,  9-H ) :   1.0315 B(  3-C ,  4-O ) :   2.1211 B(  3-C ,  5-N ) :   1.1149
B(  5-N ,  6-C ) :   1.0345 B(  5-N , 10-H ) :   0.9273 B(  6-C , 11-H ) :   0.9080
B(  6-C , 12-H ) :   0.9078

FINAL SINGLE POINT ENERGY      -340.123295697330

DIPOLE MOMENT
-------------
                                X             Y             Z
Electronic contribution:      3.26787      -2.20902      -0.29702
Nuclear contribution   :     -5.30200       3.64124       0.48090
                        -----------------------------------------
Total Dipole Moment    :     -2.03412       1.43222       0.18389
                        -----------------------------------------
Magnitude (a.u.)       :      2.49454
Magnitude (Debye)      :      6.34062

                             ****ORCA TERMINATED NORMALLY****
TOTAL RUN TIME: 0 days 0 hours 0 minutes 6 seconds 830 msec
