                         Program Version 3.0.3 - RELEASE   -
|  1> ! RI PBE def2-SVP def2-SVP/J NBO PAL2
|  2> % maxcore 2000
|  3> % output
|  4>     # printlevel mini
|  5>     print[ P_Basis ] 0
|  6>     print[ P_SCFInfo ] 1
|  7>     print[ P_SCFIterInfo ] 1
|  8>     print[ P_OrbEn ] 0
|  9>     print[ P_Cartesian ] 0
| 10> end
| 11> *xyz 0 1
| 12>  N        0.9527250000     0.0201890000     0.0570120000
| 13>  C        2.2874920000    -0.1299350000     0.0567030000
| 14>  C        3.0892670000    -1.2121200000     0.0580390000
| 15>  C        4.4627610000    -0.7031550000     0.0566930000
| 16>  O        5.4960500000    -1.3058710000     0.0570850000
| 17>  N        4.4280820000     0.7753320000     0.0542990000
| 18>  C        3.1971940000     1.0648920000     0.0544330000
| 19>  H        0.3363910000    -0.7714640000     0.0586160000
| 20>  H        0.5399930000     0.9343630000     0.0559210000
| 21>  H        2.8341050000    -2.2593630000     0.0597690000
| 22>  H        2.8337490000     2.0921510000     0.0529510000
| 23> *
| 24>
| 25>                          ****END OF INPUT****
 Total Charge           Charge          ....    0
 Multiplicity           Mult            ....    1
 Number of Electrons    NEL             ....   50
 Basis Dimension        Dim             ....  118

MULLIKEN ATOMIC CHARGES
-----------------------
   0 N :   -0.000201
   1 C :   -0.001703
   2 C :   -0.138440
   3 C :    0.095377
   4 O :   -0.102677
   5 N :   -0.120393
   6 C :    0.054795
   7 H :    0.128517
   8 H :    0.119870
   9 H :   -0.028620
  10 H :   -0.006525
Sum of atomic charges:   -0.0000000

LOEWDIN ATOMIC CHARGES
----------------------
   0 N :    0.052771
   1 C :   -0.010165
   2 C :   -0.158646
   3 C :    0.045784
   4 O :   -0.080908
   5 N :   -0.087641
   6 C :    0.030243
   7 H :    0.084594
   8 H :    0.079398
   9 H :    0.028071
  10 H :    0.016500

  Mayer bond orders larger than 0.1
B(  0-N ,  1-C ) :   1.3156 B(  0-N ,  7-H ) :   0.9468 B(  0-N ,  8-H ) :   0.9414
B(  1-C ,  2-C ) :   1.5051 B(  1-C ,  6-C ) :   0.9426 B(  2-C ,  3-C ) :   0.9673
B(  2-C ,  9-H ) :   1.0437 B(  3-C ,  4-O ) :   2.1714 B(  3-C ,  5-N ) :   0.9765
B(  5-N ,  6-C ) :   1.9563 B(  6-C , 10-H ) :   0.9744

FINAL SINGLE POINT ENERGY      -338.887014303519

DIPOLE MOMENT
-------------
                                X             Y             Z
Electronic contribution:      3.85002      -0.40642      -0.00098
Nuclear contribution   :     -6.58764       0.82760       0.00175
                        -----------------------------------------
Total Dipole Moment    :     -2.73763       0.42117       0.00077
                        -----------------------------------------
Magnitude (a.u.)       :      2.76983
Magnitude (Debye)      :      7.04036

                             ****ORCA TERMINATED NORMALLY****
TOTAL RUN TIME: 0 days 0 hours 0 minutes 6 seconds 69 msec
