                         Program Version 3.0.3 - RELEASE   -
|  1> ! RI PBE def2-SVP def2-SVP/J NBO PAL2
|  2> % maxcore 2000
|  3> % output
|  4>     # printlevel mini
|  5>     print[ P_Basis ] 0
|  6>     print[ P_SCFInfo ] 1
|  7>     print[ P_SCFIterInfo ] 1
|  8>     print[ P_OrbEn ] 0
|  9>     print[ P_Cartesian ] 0
| 10> end
| 11> *xyz 0 1
| 12>  N        1.0219870000     0.1799710000    -0.1820870000
| 13>  C        2.4309210000     0.0978030000     0.1916930000
| 14>  C        3.1652320000     1.3577610000    -0.2398920000
| 15>  C        3.4653950000     1.2114880000    -1.7104080000
| 16>  O        4.3290830000     0.1043850000    -1.9487760000
| 17>  N        3.9605630000    -1.0818720000    -1.3865520000
| 18>  C        3.0796070000    -1.0827380000    -0.4677730000
| 19>  H        0.5126630000     0.7467550000     0.4858020000
| 20>  H        0.5911490000    -0.7364920000    -0.1906600000
| 21>  H        2.5673850000    -0.0524800000     1.2743240000
| 22>  H        4.0966040000     1.4692370000     0.3224150000
| 23>  H        2.5491440000     2.2416830000    -0.0580830000
| 24>  H        3.9945980000     2.0682020000    -2.1277830000
| 25>  H        2.5298390000     1.0549790000    -2.2613580000
| 26>  H        2.8470290000    -2.0786140000    -0.0962720000
| 27> *
| 28>
| 29>                          ****END OF INPUT****
 Total Charge           Charge          ....    0
 Multiplicity           Mult            ....    1
 Number of Electrons    NEL             ....   54
 Basis Dimension        Dim             ....  138

MULLIKEN ATOMIC CHARGES
-----------------------
   0 N :   -0.162839
   1 C :   -0.031537
   2 C :    0.038610
   3 C :    0.164226
   4 O :   -0.259021
   5 N :    0.043133
   6 C :   -0.091007
   7 H :    0.090828
   8 H :    0.090700
   9 H :    0.017812
  10 H :    0.021973
  11 H :    0.006691
  12 H :    0.024623
  13 H :    0.026339
  14 H :    0.019469
Sum of atomic charges:   -0.0000000

LOEWDIN ATOMIC CHARGES
----------------------
   0 N :   -0.095666
   1 C :   -0.019204
   2 C :   -0.056975
   3 C :    0.053026
   4 O :   -0.074987
   5 N :    0.008400
   6 C :   -0.074557
   7 H :    0.053449
   8 H :    0.054511
   9 H :    0.020047
  10 H :    0.030398
  11 H :    0.031447
  12 H :    0.026630
  13 H :    0.017985
  14 H :    0.025494

  Mayer bond orders larger than 0.1
B(  0-N ,  1-C ) :   1.0763 B(  0-N ,  7-H ) :   0.9583 B(  0-N ,  8-H ) :   0.9579
B(  1-C ,  2-C ) :   1.0544 B(  1-C ,  6-C ) :   0.9629 B(  1-C ,  9-H ) :   0.8962
B(  2-C ,  3-C ) :   1.0747 B(  2-C , 10-H ) :   0.9206 B(  2-C , 11-H ) :   0.9166
B(  3-C ,  4-O ) :   0.9582 B(  3-C , 12-H ) :   0.9428 B(  3-C , 13-H ) :   0.9303
B(  4-O ,  5-N ) :   0.9997 B(  4-O ,  6-C ) :   0.1301 B(  5-N ,  6-C ) :   1.9397
B(  6-C , 14-H ) :   0.9549

FINAL SINGLE POINT ENERGY      -341.228537017598

DIPOLE MOMENT
-------------
                                X             Y             Z
Electronic contribution:      3.41457      -2.90333      -2.64851
Nuclear contribution   :     -4.35909       3.45432       3.68544
                        -----------------------------------------
Total Dipole Moment    :     -0.94452       0.55100       1.03692
                        -----------------------------------------
Magnitude (a.u.)       :      1.50696
Magnitude (Debye)      :      3.83038

                             ****ORCA TERMINATED NORMALLY****
TOTAL RUN TIME: 0 days 0 hours 0 minutes 7 seconds 253 msec
