                         Program Version 3.0.3 - RELEASE   -
|  1> ! RI PBE def2-SVP def2-SVP/J NBO PAL2
|  2> % maxcore 2000
|  3> % output
|  4>     # printlevel mini
|  5>     print[ P_Basis ] 0
|  6>     print[ P_SCFInfo ] 1
|  7>     print[ P_SCFIterInfo ] 1
|  8>     print[ P_OrbEn ] 0
|  9>     print[ P_Cartesian ] 0
| 10> end
| 11> *xyz 0 1
| 12>  N        1.1008390000     0.0264360000     0.0878340000
| 13>  C        2.4420540000    -0.0822450000     0.0670010000
| 14>  C        3.2399290000    -1.1613650000    -0.0250180000
| 15>  C        4.6227140000    -0.7173160000    -0.0025990000
| 16>  O        5.6443800000    -1.3354160000    -0.0609410000
| 17>  O        4.6308480000     0.6629050000     0.1052550000
| 18>  C        3.3096310000     1.1372030000     0.1545970000
| 19>  H        0.5152250000    -0.7853350000     0.0292990000
| 20>  H        0.6540930000     0.9205780000     0.1617950000
| 21>  H        2.9640810000    -2.2009630000    -0.1041680000
| 22>  H        3.1282250000     1.8215630000    -0.6824800000
| 23>  H        3.1445700000     1.6825550000     1.0912360000
| 24> *
| 25>
| 26>                          ****END OF INPUT****
 Total Charge           Charge          ....    0
 Multiplicity           Mult            ....    1
 Number of Electrons    NEL             ....   52
 Basis Dimension        Dim             ....  123

MULLIKEN ATOMIC CHARGES
-----------------------
   0 N :   -0.021731
   1 C :   -0.123607
   2 C :   -0.128952
   3 C :    0.157058
   4 O :   -0.162627
   5 O :   -0.272196
   6 C :    0.255459
   7 H :    0.125179
   8 H :    0.115077
   9 H :   -0.028362
  10 H :    0.043527
  11 H :    0.041175
Sum of atomic charges:   -0.0000000

LOEWDIN ATOMIC CHARGES
----------------------
   0 N :    0.031467
   1 C :    0.001961
   2 C :   -0.154708
   3 C :    0.035557
   4 O :   -0.147830
   5 O :   -0.093019
   6 C :    0.072390
   7 H :    0.082748
   8 H :    0.076820
   9 H :    0.030412
  10 H :    0.032282
  11 H :    0.031920

  Mayer bond orders larger than 0.1
B(  0-N ,  1-C ) :   1.3152 B(  0-N ,  7-H ) :   0.9475 B(  0-N ,  8-H ) :   0.9472
B(  1-C ,  2-C ) :   1.5510 B(  1-C ,  6-C ) :   1.0205 B(  2-C ,  3-C ) :   0.9969
B(  2-C ,  9-H ) :   1.0319 B(  3-C ,  4-O ) :   2.1595 B(  3-C ,  5-O ) :   1.0387
B(  5-O ,  6-C ) :   1.0294 B(  6-C , 10-H ) :   0.9161 B(  6-C , 11-H ) :   0.9154

FINAL SINGLE POINT ENERGY      -359.961777910472

DIPOLE MOMENT
-------------
                                X             Y             Z
Electronic contribution:      4.22132      -1.43316      -0.15265
Nuclear contribution   :     -6.95447       2.23790       0.23873
                        -----------------------------------------
Total Dipole Moment    :     -2.73315       0.80473       0.08608
                        -----------------------------------------
Magnitude (a.u.)       :      2.85046
Magnitude (Debye)      :      7.24528

                             ****ORCA TERMINATED NORMALLY****
TOTAL RUN TIME: 0 days 0 hours 0 minutes 5 seconds 998 msec
