                         Program Version 3.0.3 - RELEASE   -
|  1> ! RI PBE def2-SVP def2-SVP/J NBO PAL2
|  2> % maxcore 2000
|  3> % output
|  4>     # printlevel mini
|  5>     print[ P_Basis ] 0
|  6>     print[ P_SCFInfo ] 1
|  7>     print[ P_SCFIterInfo ] 1
|  8>     print[ P_OrbEn ] 0
|  9>     print[ P_Cartesian ] 0
| 10> end
| 11> *xyz 0 1
| 12>  N        1.0443310000    -0.2368300000     0.0790540000
| 13>  C        2.4666760000    -0.0389290000     0.0791360000
| 14>  C        3.2111500000     1.0786720000     0.8434820000
| 15>  N        4.2631320000     0.0902750000     1.1366670000
| 16>  C        3.3058170000    -1.0054250000     0.9268480000
| 17>  C        3.7883330000    -2.2703030000     0.2622540000
| 18>  O        2.6985120000    -3.1279690000    -0.0015390000
| 19>  H        0.5684180000     0.4138610000    -0.5322990000
| 20>  H        0.6537370000    -0.1378300000     1.0080640000
| 21>  H        2.8221430000    -0.0679010000    -0.9550860000
| 22>  H        2.6356420000     1.3944930000     1.7264940000
| 23>  H        3.5422660000     1.9635030000     0.2930920000
| 24>  H        4.6734480000     0.1437430000     2.0596660000
| 25>  H        2.7427340000    -1.2710950000     1.8375330000
| 26>  H        4.4795940000    -2.8198900000     0.9084400000
| 27>  H        4.3314290000    -2.0073280000    -0.6567950000
| 28>  H        1.9606460000    -2.5839670000    -0.3019100000
| 29> *
| 30>
| 31>                          ****END OF INPUT****
 Total Charge           Charge          ....    0
 Multiplicity           Mult            ....    1
 Number of Electrons    NEL             ....   56
 Basis Dimension        Dim             ....  148

MULLIKEN ATOMIC CHARGES
-----------------------
   0 N :   -0.140374
   1 C :   -0.132768
   2 C :    0.188440
   3 N :   -0.242080
   4 C :   -0.071086
   5 C :    0.284312
   6 O :   -0.289443
   7 H :    0.100356
   8 H :    0.090138
   9 H :    0.013321
  10 H :   -0.024832
  11 H :    0.006514
  12 H :    0.097155
  13 H :   -0.014243
  14 H :    0.003018
  15 H :   -0.018127
  16 H :    0.149698
Sum of atomic charges:   -0.0000000

LOEWDIN ATOMIC CHARGES
----------------------
   0 N :   -0.081724
   1 C :   -0.013659
   2 C :    0.011545
   3 N :   -0.101664
   4 C :   -0.012714
   5 C :    0.053240
   6 O :   -0.124225
   7 H :    0.058786
   8 H :    0.051193
   9 H :    0.025264
  10 H :   -0.001565
  11 H :    0.008030
  12 H :    0.048432
  13 H :    0.002641
  14 H :    0.016926
  15 H :    0.001384
  16 H :    0.058110

  Mayer bond orders larger than 0.1
B(  0-N ,  1-C ) :   1.1206 B(  0-N ,  7-H ) :   0.9622 B(  0-N ,  8-H ) :   0.9556
B(  1-C ,  2-C ) :   1.0311 B(  1-C ,  4-C ) :   0.9977 B(  1-C ,  9-H ) :   0.8870
B(  2-C ,  3-N ) :   1.0441 B(  2-C , 10-H ) :   0.9079 B(  2-C , 11-H ) :   0.9354
B(  3-N ,  4-C ) :   1.0140 B(  3-N , 12-H ) :   0.9370 B(  4-C ,  5-C ) :   1.0651
B(  4-C , 13-H ) :   0.9009 B(  5-C ,  6-O ) :   1.0770 B(  5-C , 14-H ) :   0.9297
B(  5-C , 15-H ) :   0.9037 B(  6-O , 16-H ) :   0.9694

FINAL SINGLE POINT ENERGY      -342.446607475409

DIPOLE MOMENT
-------------
                                X             Y             Z
Electronic contribution:      0.36550      -1.90474      -0.27371
Nuclear contribution   :     -0.86859       3.02180       0.65825
                        -----------------------------------------
Total Dipole Moment    :     -0.50309       1.11706       0.38454
                        -----------------------------------------
Magnitude (a.u.)       :      1.28406
Magnitude (Debye)      :      3.26381

                             ****ORCA TERMINATED NORMALLY****
TOTAL RUN TIME: 0 days 0 hours 0 minutes 7 seconds 654 msec
