                         Program Version 3.0.3 - RELEASE   -
|  1> ! RI PBE def2-SVP def2-SVP/J NBO PAL2
|  2> % maxcore 2000
|  3> % output
|  4>     # printlevel mini
|  5>     print[ P_Basis ] 0
|  6>     print[ P_SCFInfo ] 1
|  7>     print[ P_SCFIterInfo ] 1
|  8>     print[ P_OrbEn ] 0
|  9>     print[ P_Cartesian ] 0
| 10> end
| 11> *xyz 0 1
| 12>  N        1.1237390000     0.1341120000    -0.0454170000
| 13>  C        2.5504150000     0.0381910000    -0.0646980000
| 14>  C        3.3032980000    -0.8925350000    -0.9833800000
| 15>  N        2.5804280000    -1.8082480000    -1.8043360000
| 16>  C        3.3158970000     0.6070250000    -1.2143120000
| 17>  C        4.5609780000     1.4077510000    -0.9751590000
| 18>  O        4.3302100000     2.6760580000    -0.3936320000
| 19>  H        0.6826640000    -0.6947040000     0.3324020000
| 20>  H        0.7278720000     0.3387700000    -0.9511050000
| 21>  H        2.9938230000     0.1979540000     0.9131430000
| 22>  H        4.2243820000    -1.3027770000    -0.5765530000
| 23>  H        2.8561040000    -1.7600620000    -2.7758860000
| 24>  H        1.5837420000    -1.6406520000    -1.7476840000
| 25>  H        2.7053430000     0.9342370000    -2.0555350000
| 26>  H        5.1230280000     1.5083010000    -1.9150380000
| 27>  H        5.2077990000     0.8779990000    -0.2706240000
| 28>  H        3.6687890000     3.1341880000    -0.9179750000
| 29> *
| 30>
| 31>                          ****END OF INPUT****
 Total Charge           Charge          ....    0
 Multiplicity           Mult            ....    1
 Number of Electrons    NEL             ....   56
 Basis Dimension        Dim             ....  148

MULLIKEN ATOMIC CHARGES
-----------------------
   0 N :   -0.120528
   1 C :   -0.014314
   2 C :   -0.060281
   3 N :   -0.106014
   4 C :   -0.189004
   5 C :    0.278033
   6 O :   -0.285202
   7 H :    0.104832
   8 H :    0.079772
   9 H :    0.026501
  10 H :    0.009599
  11 H :    0.095901
  12 H :    0.040624
  13 H :    0.001036
  14 H :   -0.005823
  15 H :   -0.005632
  16 H :    0.150499
Sum of atomic charges:   -0.0000000

LOEWDIN ATOMIC CHARGES
----------------------
   0 N :   -0.069368
   1 C :   -0.002850
   2 C :   -0.021852
   3 N :   -0.083028
   4 C :   -0.092716
   5 C :    0.059603
   6 O :   -0.124837
   7 H :    0.058198
   8 H :    0.045703
   9 H :    0.024289
  10 H :    0.015456
  11 H :    0.054159
  12 H :    0.029073
  13 H :    0.015534
  14 H :    0.005779
  15 H :    0.021367
  16 H :    0.065490

  Mayer bond orders larger than 0.1
B(  0-N ,  1-C ) :   1.1617 B(  0-N ,  7-H ) :   0.9674 B(  0-N ,  8-H ) :   0.9615
B(  1-C ,  2-C ) :   0.9076 B(  1-C ,  4-C ) :   0.9248 B(  1-C ,  9-H ) :   0.9379
B(  2-C ,  3-N ) :   1.1843 B(  2-C ,  4-C ) :   0.8742 B(  2-C , 10-H ) :   0.9337
B(  3-N , 11-H ) :   0.9695 B(  3-N , 12-H ) :   0.9437 B(  4-C ,  5-C ) :   1.0752
B(  4-C , 13-H ) :   0.9311 B(  5-C ,  6-O ) :   1.0634 B(  5-C , 14-H ) :   0.9261
B(  5-C , 15-H ) :   0.9179 B(  6-O , 16-H ) :   0.9862

FINAL SINGLE POINT ENERGY      -342.440443558300

DIPOLE MOMENT
-------------
                                X             Y             Z
Electronic contribution:      0.51664       1.56481       1.01100
Nuclear contribution   :     -1.09722      -1.69022      -1.89140
                        -----------------------------------------
Total Dipole Moment    :     -0.58058      -0.12541      -0.88040
                        -----------------------------------------
Magnitude (a.u.)       :      1.06203
Magnitude (Debye)      :      2.69946

                             ****ORCA TERMINATED NORMALLY****
TOTAL RUN TIME: 0 days 0 hours 0 minutes 7 seconds 513 msec
