                         Program Version 3.0.3 - RELEASE   -
|  1> ! RI PBE def2-SVP def2-SVP/J NBO PAL2
|  2> % maxcore 2000
|  3> % output
|  4>     # printlevel mini
|  5>     print[ P_Basis ] 0
|  6>     print[ P_SCFInfo ] 1
|  7>     print[ P_SCFIterInfo ] 1
|  8>     print[ P_OrbEn ] 0
|  9>     print[ P_Cartesian ] 0
| 10> end
| 11> *xyz 0 1
| 12>  N        1.0057950000     0.0406170000     0.1720920000
| 13>  C        2.4292700000     0.0910260000     0.0248480000
| 14>  C        3.2878920000     1.1755980000     0.7512910000
| 15>  N        4.0684650000     0.0910650000     1.3224310000
| 16>  C        3.2177740000    -0.9732910000     0.8194130000
| 17>  C        5.1420980000     0.0445940000     2.1234730000
| 18>  O        5.6335240000    -0.9735630000     2.5601710000
| 19>  H        0.5425390000     0.7608670000    -0.3659510000
| 20>  H        0.7239660000     0.1383390000     1.1397970000
| 21>  H        2.6683330000     0.0546390000    -1.0391320000
| 22>  H        2.7191210000     1.7487110000     1.4931350000
| 23>  H        3.8502510000     1.8636570000     0.1139250000
| 24>  H        2.6273470000    -1.4613890000     1.6022070000
| 25>  H        3.7406240000    -1.7390710000     0.2434660000
| 26>  H        5.5469900000     1.0531000000     2.3413230000
| 27> *
| 28>
| 29>                          ****END OF INPUT****
 Total Charge           Charge          ....    0
 Multiplicity           Mult            ....    1
 Number of Electrons    NEL             ....   54
 Basis Dimension        Dim             ....  138

MULLIKEN ATOMIC CHARGES
-----------------------
   0 N :   -0.131035
   1 C :   -0.250151
   2 C :    0.269358
   3 N :   -0.300941
   4 C :    0.262519
   5 C :    0.146170
   6 O :   -0.241052
   7 H :    0.099550
   8 H :    0.088329
   9 H :    0.027360
  10 H :   -0.005671
  11 H :    0.022372
  12 H :    0.013578
  13 H :    0.035038
  14 H :   -0.035424
Sum of atomic charges:   -0.0000000

LOEWDIN ATOMIC CHARGES
----------------------
   0 N :   -0.079946
   1 C :   -0.001983
   2 C :    0.026281
   3 N :   -0.041286
   4 C :    0.051570
   5 C :    0.038908
   6 O :   -0.191102
   7 H :    0.058115
   8 H :    0.051769
   9 H :    0.028604
  10 H :    0.012062
  11 H :    0.018513
  12 H :    0.022512
  13 H :    0.026813
  14 H :   -0.020830

  Mayer bond orders larger than 0.1
B(  0-N ,  1-C ) :   1.1425 B(  0-N ,  7-H ) :   0.9650 B(  0-N ,  8-H ) :   0.9609
B(  1-C ,  2-C ) :   1.0155 B(  1-C ,  4-C ) :   1.0437 B(  1-C ,  9-H ) :   0.8964
B(  2-C ,  3-N ) :   0.9902 B(  2-C , 10-H ) :   0.9113 B(  2-C , 11-H ) :   0.9312
B(  3-N ,  4-C ) :   0.9747 B(  3-N ,  5-C ) :   1.1860 B(  4-C , 12-H ) :   0.9233
B(  4-C , 13-H ) :   0.9372 B(  5-C ,  6-O ) :   2.0307 B(  5-C , 14-H ) :   0.9222

FINAL SINGLE POINT ENERGY      -341.276961124706

DIPOLE MOMENT
-------------
                                X             Y             Z
Electronic contribution:      4.21381      -1.61042       2.45404
Nuclear contribution   :     -5.39991       2.79983      -3.20195
                        -----------------------------------------
Total Dipole Moment    :     -1.18610       1.18940      -0.74791
                        -----------------------------------------
Magnitude (a.u.)       :      1.83872
Magnitude (Debye)      :      4.67365

                             ****ORCA TERMINATED NORMALLY****
TOTAL RUN TIME: 0 days 0 hours 0 minutes 7 seconds 16 msec
