                         Program Version 3.0.3 - RELEASE   -
|  1> ! RI PBE def2-SVP def2-SVP/J NBO PAL2
|  2> % maxcore 2000
|  3> % output
|  4>     # printlevel mini
|  5>     print[ P_Basis ] 0
|  6>     print[ P_SCFInfo ] 1
|  7>     print[ P_SCFIterInfo ] 1
|  8>     print[ P_OrbEn ] 0
|  9>     print[ P_Cartesian ] 0
| 10> end
| 11> *xyz 0 1
| 12>  N        0.9796810000     0.0046670000     0.5655250000
| 13>  C        2.3549890000     0.0274980000     0.0982680000
| 14>  C        3.2558310000     1.1427710000     0.6942330000
| 15>  N        4.4370100000     0.4337630000     1.1714270000
| 16>  C        3.9333910000    -0.8363520000     1.6723980000
| 17>  C        3.1037410000    -1.2704940000     0.4742910000
| 18>  O        3.9471730000    -1.7091120000    -0.5669590000
| 19>  H        0.4809020000     0.8258390000     0.2453450000
| 20>  H        0.9449670000     0.0229440000     1.5789630000
| 21>  H        2.3277560000     0.0840720000    -0.9912700000
| 22>  H        2.6984830000     1.6324250000     1.5096170000
| 23>  H        3.5298730000     1.9121770000    -0.0322060000
| 24>  H        4.9754320000     0.9585630000     1.8463990000
| 25>  H        3.2964480000    -0.7348340000     2.5690600000
| 26>  H        4.7414930000    -1.5356810000     1.8943290000
| 27>  H        2.4004970000    -2.0765490000     0.6834470000
| 28>  H        4.6729140000    -1.0730980000    -0.5988570000
| 29> *
| 30>
| 31>                          ****END OF INPUT****
 Total Charge           Charge          ....    0
 Multiplicity           Mult            ....    1
 Number of Electrons    NEL             ....   56
 Basis Dimension        Dim             ....  148

MULLIKEN ATOMIC CHARGES
-----------------------
   0 N :   -0.146681
   1 C :   -0.110335
   2 C :    0.200841
   3 N :   -0.283633
   4 C :    0.109261
   5 C :    0.100203
   6 O :   -0.255625
   7 H :    0.090279
   8 H :    0.079521
   9 H :    0.007900
  10 H :   -0.041181
  11 H :    0.006530
  12 H :    0.099231
  13 H :   -0.013539
  14 H :    0.015436
  15 H :   -0.001534
  16 H :    0.143328
Sum of atomic charges:   -0.0000000

LOEWDIN ATOMIC CHARGES
----------------------
   0 N :   -0.087565
   1 C :   -0.018935
   2 C :   -0.002312
   3 N :   -0.102368
   4 C :   -0.003936
   5 C :    0.044528
   6 O :   -0.108515
   7 H :    0.051913
   8 H :    0.042884
   9 H :    0.026084
  10 H :   -0.004912
  11 H :    0.017014
  12 H :    0.055535
  13 H :   -0.001675
  14 H :    0.019856
  15 H :    0.018100
  16 H :    0.054304

  Mayer bond orders larger than 0.1
B(  0-N ,  1-C ) :   1.1130 B(  0-N ,  7-H ) :   0.9624 B(  0-N ,  8-H ) :   0.9652
B(  1-C ,  2-C ) :   1.0012 B(  1-C ,  5-C ) :   1.0097 B(  1-C ,  9-H ) :   0.8866
B(  2-C ,  3-N ) :   1.0705 B(  2-C , 10-H ) :   0.9019 B(  2-C , 11-H ) :   0.9223
B(  3-N ,  4-C ) :   1.0106 B(  3-N , 12-H ) :   0.9408 B(  4-C ,  5-C ) :   1.0535
B(  4-C , 13-H ) :   0.9095 B(  4-C , 14-H ) :   0.9299 B(  5-C ,  6-O ) :   1.0889
B(  5-C , 15-H ) :   0.9222 B(  6-O , 16-H ) :   0.9665

FINAL SINGLE POINT ENERGY      -342.470952817296

DIPOLE MOMENT
-------------
                                X             Y             Z
Electronic contribution:      1.39106      -1.93095      -1.89493
Nuclear contribution   :     -1.29113       2.97963       2.70258
                        -----------------------------------------
Total Dipole Moment    :      0.09993       1.04869       0.80765
                        -----------------------------------------
Magnitude (a.u.)       :      1.32741
Magnitude (Debye)      :      3.37401

                             ****ORCA TERMINATED NORMALLY****
TOTAL RUN TIME: 0 days 0 hours 0 minutes 7 seconds 791 msec
