                         Program Version 3.0.3 - RELEASE   -
|  1> ! RI PBE def2-SVP def2-SVP/J NBO PAL2
|  2> % maxcore 2000
|  3> % output
|  4>     # printlevel mini
|  5>     print[ P_Basis ] 0
|  6>     print[ P_SCFInfo ] 1
|  7>     print[ P_SCFIterInfo ] 1
|  8>     print[ P_OrbEn ] 0
|  9>     print[ P_Cartesian ] 0
| 10> end
| 11> *xyz 0 1
| 12>  N        0.9157800000    -0.0692570000    -0.0108110000
| 13>  C        2.3547920000    -0.0553110000     0.0935910000
| 14>  C        2.9946100000     1.0847690000     0.9144970000
| 15>  N        4.2453020000     0.5028060000     1.3308770000
| 16>  C        4.2565730000    -0.8599620000     1.3326380000
| 17>  O        5.1568240000    -1.5589390000     1.7341330000
| 18>  C        2.9251670000    -1.3041700000     0.7553440000
| 19>  H        0.5709600000     0.7513440000    -0.4928930000
| 20>  H        0.4841010000    -0.0915930000     0.9058010000
| 21>  H        2.7569150000     0.0063350000    -0.9230240000
| 22>  H        2.3505910000     1.3391110000     1.7689820000
| 23>  H        3.1441730000     1.9911100000     0.3216670000
| 24>  H        4.9853010000     1.0139200000     1.7827300000
| 25>  H        2.2907420000    -1.6271370000     1.5895270000
| 26>  H        3.0447790000    -2.1547350000     0.0866400000
| 27> *
| 28>
| 29>                          ****END OF INPUT****
 Total Charge           Charge          ....    0
 Multiplicity           Mult            ....    1
 Number of Electrons    NEL             ....   54
 Basis Dimension        Dim             ....  138

MULLIKEN ATOMIC CHARGES
-----------------------
   0 N :   -0.150150
   1 C :   -0.140697
   2 C :    0.197370
   3 N :   -0.176102
   4 C :    0.018280
   5 O :   -0.183088
   6 C :    0.042183
   7 H :    0.090836
   8 H :    0.087011
   9 H :    0.024157
  10 H :   -0.003891
  11 H :    0.011986
  12 H :    0.109868
  13 H :    0.030595
  14 H :    0.041640
Sum of atomic charges:   -0.0000000

LOEWDIN ATOMIC CHARGES
----------------------
   0 N :   -0.086029
   1 C :   -0.005181
   2 C :    0.010984
   3 N :   -0.006005
   4 C :    0.020026
   5 O :   -0.184104
   6 C :   -0.062427
   7 H :    0.053684
   8 H :    0.048736
   9 H :    0.029740
  10 H :    0.006883
  11 H :    0.018166
  12 H :    0.070504
  13 H :    0.042513
  14 H :    0.042511

  Mayer bond orders larger than 0.1
B(  0-N ,  1-C ) :   1.1266 B(  0-N ,  7-H ) :   0.9652 B(  0-N ,  8-H ) :   0.9616
B(  1-C ,  2-C ) :   1.0054 B(  1-C ,  6-C ) :   1.0707 B(  1-C ,  9-H ) :   0.9065
B(  2-C ,  3-N ) :   0.9934 B(  2-C , 10-H ) :   0.9222 B(  2-C , 11-H ) :   0.9343
B(  3-N ,  4-C ) :   1.1860 B(  3-N , 12-H ) :   0.9207 B(  4-C ,  5-O ) :   2.1626
B(  4-C ,  6-C ) :   0.9445 B(  6-C , 13-H ) :   0.9041 B(  6-C , 14-H ) :   0.9256

FINAL SINGLE POINT ENERGY      -341.320226490109

DIPOLE MOMENT
-------------
                                X             Y             Z
Electronic contribution:      5.01483      -2.04414       1.77736
Nuclear contribution   :     -5.93494       3.48309      -1.89637
                        -----------------------------------------
Total Dipole Moment    :     -0.92011       1.43895      -0.11901
                        -----------------------------------------
Magnitude (a.u.)       :      1.71212
Magnitude (Debye)      :      4.35186

                             ****ORCA TERMINATED NORMALLY****
TOTAL RUN TIME: 0 days 0 hours 0 minutes 7 seconds 386 msec
