                         Program Version 3.0.3 - RELEASE   -
|  1> ! RI PBE def2-SVP def2-SVP/J NBO PAL2
|  2> % maxcore 2000
|  3> % output
|  4>     # printlevel mini
|  5>     print[ P_Basis ] 0
|  6>     print[ P_SCFInfo ] 1
|  7>     print[ P_SCFIterInfo ] 1
|  8>     print[ P_OrbEn ] 0
|  9>     print[ P_Cartesian ] 0
| 10> end
| 11> *xyz 0 1
| 12>  N        0.8778410000     0.0269130000    -0.0376500000
| 13>  C        2.2525070000     0.0620370000    -0.0322240000
| 14>  C        3.1050640000     1.1435780000    -0.0269180000
| 15>  N        4.3923750000     0.6683870000    -0.0229190000
| 16>  C        4.3870140000    -0.6965260000    -0.0255110000
| 17>  C        3.0725880000    -1.0934230000    -0.0312710000
| 18>  O        2.5309660000    -2.3472050000    -0.0356820000
| 19>  H        0.3327360000     0.8635410000    -0.0370360000
| 20>  H        0.4097700000    -0.8564350000    -0.0400060000
| 21>  H        2.8926290000     2.1998930000    -0.0257540000
| 22>  H        5.2140460000     1.2392820000    -0.0187240000
| 23>  H        5.2971750000    -1.2742930000    -0.0231280000
| 24>  H        3.2368110000    -2.9968500000    -0.0342750000
| 25> *
| 26>
| 27>                          ****END OF INPUT****
 Total Charge           Charge          ....    0
 Multiplicity           Mult            ....    1
 Number of Electrons    NEL             ....   52
 Basis Dimension        Dim             ....  128

MULLIKEN ATOMIC CHARGES
-----------------------
   0 N :   -0.071509
   1 C :    0.020547
   2 C :   -0.092633
   3 N :   -0.056447
   4 C :   -0.083036
   5 C :    0.082804
   6 O :   -0.193827
   7 H :    0.095900
   8 H :    0.103298
   9 H :   -0.039315
  10 H :    0.107207
  11 H :   -0.039218
  12 H :    0.166229
Sum of atomic charges:   -0.0000000

LOEWDIN ATOMIC CHARGES
----------------------
   0 N :   -0.029054
   1 C :   -0.053126
   2 C :   -0.102204
   3 N :    0.083934
   4 C :   -0.106669
   5 C :   -0.044398
   6 O :   -0.058273
   7 H :    0.063150
   8 H :    0.065766
   9 H :    0.008998
  10 H :    0.077238
  11 H :    0.009592
  12 H :    0.085048

  Mayer bond orders larger than 0.1
B(  0-N ,  1-C ) :   1.2266 B(  0-N ,  7-H ) :   0.9510 B(  0-N ,  8-H ) :   0.9481
B(  1-C ,  2-C ) :   1.3980 B(  1-C ,  5-C ) :   1.3590 B(  2-C ,  3-N ) :   1.1675
B(  2-C ,  4-C ) :   0.1156 B(  2-C ,  9-H ) :   1.0051 B(  3-N ,  4-C ) :   1.1947
B(  3-N , 10-H ) :   0.9456 B(  4-C ,  5-C ) :   1.3802 B(  4-C , 11-H ) :   0.9936
B(  5-C ,  6-O ) :   1.1771 B(  6-O , 12-H ) :   0.9704

FINAL SINGLE POINT ENERGY      -340.087094408220

DIPOLE MOMENT
-------------
                                X             Y             Z
Electronic contribution:      0.50717      -1.13181      -0.00055
Nuclear contribution   :     -0.09781       1.25094       0.00374
                        -----------------------------------------
Total Dipole Moment    :      0.40936       0.11914       0.00319
                        -----------------------------------------
Magnitude (a.u.)       :      0.42636
Magnitude (Debye)      :      1.08372

                             ****ORCA TERMINATED NORMALLY****
TOTAL RUN TIME: 0 days 0 hours 0 minutes 5 seconds 963 msec
