                         Program Version 3.0.3 - RELEASE   -
|  1> ! RI PBE def2-SVP def2-SVP/J NBO PAL2
|  2> % maxcore 2000
|  3> % output
|  4>     # printlevel mini
|  5>     print[ P_Basis ] 0
|  6>     print[ P_SCFInfo ] 1
|  7>     print[ P_SCFIterInfo ] 1
|  8>     print[ P_OrbEn ] 0
|  9>     print[ P_Cartesian ] 0
| 10> end
| 11> *xyz 0 1
| 12>  N        0.8885600000     0.0678020000     0.0465330000
| 13>  C        2.2633450000     0.0551450000     0.0531530000
| 14>  C        3.1097850000     1.1344650000     0.0569880000
| 15>  N        4.4116820000     0.6332910000     0.0632330000
| 16>  C        4.3685580000    -0.7176790000     0.0632740000
| 17>  O        5.4717280000    -1.4989740000     0.0686000000
| 18>  C        3.0622610000    -1.1272430000     0.0571590000
| 19>  H        0.3791960000     0.9274120000     0.0448690000
| 20>  H        0.3741110000    -0.7882110000     0.0451850000
| 21>  H        2.9183080000     2.1937160000     0.0558710000
| 22>  H        5.2393350000     1.1985430000     0.0669890000
| 23>  H        6.2642750000    -0.9575530000     0.0726070000
| 24>  H        2.7238460000    -2.1508940000     0.0557300000
| 25> *
| 26>
| 27>                          ****END OF INPUT****
 Total Charge           Charge          ....    0
 Multiplicity           Mult            ....    1
 Number of Electrons    NEL             ....   52
 Basis Dimension        Dim             ....  128

MULLIKEN ATOMIC CHARGES
-----------------------
   0 N :   -0.079472
   1 C :    0.061813
   2 C :   -0.076759
   3 N :   -0.083298
   4 C :    0.129672
   5 O :   -0.152638
   6 C :   -0.145674
   7 H :    0.095243
   8 H :    0.098070
   9 H :   -0.045021
  10 H :    0.094647
  11 H :    0.161511
  12 H :   -0.058093
Sum of atomic charges:   -0.0000000

LOEWDIN ATOMIC CHARGES
----------------------
   0 N :   -0.027527
   1 C :   -0.023125
   2 C :   -0.130941
   3 N :    0.052214
   4 C :    0.019711
   5 O :   -0.034095
   6 C :   -0.161907
   7 H :    0.063151
   8 H :    0.064554
   9 H :    0.005863
  10 H :    0.071308
  11 H :    0.082163
  12 H :    0.018629

  Mayer bond orders larger than 0.1
B(  0-N ,  1-C ) :   1.2207 B(  0-N ,  7-H ) :   0.9578 B(  0-N ,  8-H ) :   0.9562
B(  1-C ,  2-C ) :   1.4477 B(  1-C ,  6-C ) :   1.2317 B(  2-C ,  3-N ) :   1.0714
B(  2-C ,  9-H ) :   1.0003 B(  3-N ,  4-C ) :   1.2260 B(  3-N , 10-H ) :   0.9360
B(  4-C ,  5-O ) :   1.2141 B(  4-C ,  6-C ) :   1.3968 B(  5-O , 11-H ) :   0.9638
B(  6-C , 12-H ) :   1.0257

FINAL SINGLE POINT ENERGY      -340.086673324064

DIPOLE MOMENT
-------------
                                X             Y             Z
Electronic contribution:      2.73202      -0.91024       0.01261
Nuclear contribution   :     -2.32717       1.62397      -0.00957
                        -----------------------------------------
Total Dipole Moment    :      0.40485       0.71372       0.00304
                        -----------------------------------------
Magnitude (a.u.)       :      0.82056
Magnitude (Debye)      :      2.08569

                             ****ORCA TERMINATED NORMALLY****
TOTAL RUN TIME: 0 days 0 hours 0 minutes 6 seconds 156 msec
