                         Program Version 3.0.3 - RELEASE   -
|  1> ! RI PBE def2-SVP def2-SVP/J NBO PAL2
|  2> % maxcore 2000
|  3> % output
|  4>     # printlevel mini
|  5>     print[ P_Basis ] 0
|  6>     print[ P_SCFInfo ] 1
|  7>     print[ P_SCFIterInfo ] 1
|  8>     print[ P_OrbEn ] 0
|  9>     print[ P_Cartesian ] 0
| 10> end
| 11> *xyz 0 1
| 12>  N        1.0011580000     0.4614700000     0.0331870000
| 13>  C        2.4004590000     0.1455350000    -0.0091250000
| 14>  C        3.2639890000     0.8628720000     1.0524590000
| 15>  O        3.9047780000    -0.3601330000     1.4281160000
| 16>  C        2.9435880000    -1.1276550000     0.6995300000
| 17>  C        2.9670130000     0.2918360000    -1.3837910000
| 18>  C        2.3301320000     0.7773070000    -2.4396410000
| 19>  H        0.6227600000     0.3126770000     0.9597300000
| 20>  H        0.4779190000    -0.1146220000    -0.6150230000
| 21>  H        2.6622280000     1.2804320000     1.8702190000
| 22>  H        3.9721240000     1.6156080000     0.6979650000
| 23>  H        2.1994150000    -1.5887910000     1.3627220000
| 24>  H        3.4113630000    -1.8983310000     0.0797690000
| 25>  H        3.9999220000    -0.0357730000    -1.4804090000
| 26>  H        1.3105660000     1.1391700000    -2.3724730000
| 27>  H        2.8209750000     0.8462890000    -3.4031360000
| 28> *
| 29>
| 30>                          ****END OF INPUT****
 Total Charge           Charge          ....    0
 Multiplicity           Mult            ....    1
 Number of Electrons    NEL             ....   54
 Basis Dimension        Dim             ....  143

MULLIKEN ATOMIC CHARGES
-----------------------
   0 N :   -0.103172
   1 C :   -0.368328
   2 C :    0.303540
   3 O :   -0.358331
   4 C :    0.313326
   5 C :    0.016683
   6 C :   -0.024186
   7 H :    0.084678
   8 H :    0.099164
   9 H :   -0.005582
  10 H :    0.018183
  11 H :   -0.022444
  12 H :    0.004737
  13 H :   -0.002753
  14 H :    0.020530
  15 H :    0.023954
Sum of atomic charges:   -0.0000000

LOEWDIN ATOMIC CHARGES
----------------------
   0 N :   -0.072311
   1 C :   -0.046434
   2 C :    0.095575
   3 O :   -0.179251
   4 C :    0.075813
   5 C :   -0.027015
   6 C :   -0.061712
   7 H :    0.051145
   8 H :    0.055999
   9 H :    0.007196
  10 H :    0.014064
  11 H :    0.000044
  12 H :    0.007948
  13 H :    0.030179
  14 H :    0.022319
  15 H :    0.026442

  Mayer bond orders larger than 0.1
B(  0-N ,  1-C ) :   1.1414 B(  0-N ,  7-H ) :   0.9468 B(  0-N ,  8-H ) :   0.9498
B(  1-C ,  2-C ) :   1.0158 B(  1-C ,  4-C ) :   1.0027 B(  1-C ,  5-C ) :   0.9715
B(  2-C ,  3-O ) :   1.0360 B(  2-C ,  9-H ) :   0.9144 B(  2-C , 10-H ) :   0.9348
B(  3-O ,  4-C ) :   1.0392 B(  4-C , 11-H ) :   0.9065 B(  4-C , 12-H ) :   0.9312
B(  5-C ,  6-C ) :   1.9986 B(  5-C , 13-H ) :   0.9506 B(  6-C , 14-H ) :   0.9287
B(  6-C , 15-H ) :   0.9360

FINAL SINGLE POINT ENERGY      -325.202239348283

DIPOLE MOMENT
-------------
                                X             Y             Z
Electronic contribution:      1.82906      -0.53246       2.11084
Nuclear contribution   :     -2.42638       0.28962      -2.30724
                        -----------------------------------------
Total Dipole Moment    :     -0.59733      -0.24284      -0.19640
                        -----------------------------------------
Magnitude (a.u.)       :      0.67405
Magnitude (Debye)      :      1.71329

                             ****ORCA TERMINATED NORMALLY****
TOTAL RUN TIME: 0 days 0 hours 0 minutes 7 seconds 725 msec
