                         Program Version 3.0.3 - RELEASE   -
|  1> ! RI PBE def2-SVP def2-SVP/J NBO PAL2
|  2> % maxcore 2000
|  3> % output
|  4>     # printlevel mini
|  5>     print[ P_Basis ] 0
|  6>     print[ P_SCFInfo ] 1
|  7>     print[ P_SCFIterInfo ] 1
|  8>     print[ P_OrbEn ] 0
|  9>     print[ P_Cartesian ] 0
| 10> end
| 11> *xyz 0 1
| 12>  N        0.8289330000    -0.0415180000     0.1630530000
| 13>  C        2.2612410000    -0.0992370000    -0.0042600000
| 14>  C        3.0409690000     0.9403860000     0.8344910000
| 15>  O        3.8574800000    -0.0696400000     1.4312270000
| 16>  C        3.1066500000    -1.1172560000     0.8183460000
| 17>  C        2.5936190000    -0.0979370000    -1.4190210000
| 18>  C        2.8832500000    -0.1192700000    -2.5834280000
| 19>  H        0.5725070000    -0.2137300000     1.1274550000
| 20>  H        0.3648220000    -0.7263490000    -0.4196750000
| 21>  H        2.4014010000     1.4461520000     1.5671220000
| 22>  H        3.6243600000     1.6763130000     0.2774100000
| 23>  H        2.5051470000    -1.6772810000     1.5458520000
| 24>  H        3.7380540000    -1.8035710000     0.2486880000
| 25>  H        3.1400570000    -0.1292350000    -3.6163600000
| 26> *
| 27>
| 28>                          ****END OF INPUT****
 Total Charge           Charge          ....    0
 Multiplicity           Mult            ....    1
 Number of Electrons    NEL             ....   52
 Basis Dimension        Dim             ....  133

MULLIKEN ATOMIC CHARGES
-----------------------
   0 N :   -0.100047
   1 C :   -0.438308
   2 C :    0.346902
   3 O :   -0.358002
   4 C :    0.353926
   5 C :    0.508525
   6 C :   -0.510349
   7 H :    0.087631
   8 H :    0.100426
   9 H :   -0.003869
  10 H :    0.016853
  11 H :   -0.018050
  12 H :    0.012114
  13 H :    0.002248
Sum of atomic charges:   -0.0000000

LOEWDIN ATOMIC CHARGES
----------------------
   0 N :   -0.067923
   1 C :   -0.051723
   2 C :    0.102124
   3 O :   -0.178026
   4 C :    0.085286
   5 C :   -0.013386
   6 C :   -0.071643
   7 H :    0.052659
   8 H :    0.059625
   9 H :    0.009921
  10 H :    0.018079
  11 H :    0.002974
  12 H :    0.014955
  13 H :    0.037078

  Mayer bond orders larger than 0.1
B(  0-N ,  1-C ) :   1.0963 B(  0-N ,  7-H ) :   0.9468 B(  0-N ,  8-H ) :   0.9564
B(  1-C ,  2-C ) :   1.0245 B(  1-C ,  4-C ) :   1.0091 B(  1-C ,  5-C ) :   0.8926
B(  2-C ,  3-O ) :   1.0442 B(  2-C ,  9-H ) :   0.9102 B(  2-C , 10-H ) :   0.9273
B(  3-O ,  4-C ) :   1.0526 B(  4-C , 11-H ) :   0.9027 B(  4-C , 12-H ) :   0.9239
B(  5-C ,  6-C ) :   2.2845 B(  5-C , 13-H ) :  -0.1189 B(  6-C , 13-H ) :   1.1085

FINAL SINGLE POINT ENERGY      -323.954117969660

DIPOLE MOMENT
-------------
                                X             Y             Z
Electronic contribution:      1.47957       0.29747      -1.01888
Nuclear contribution   :     -2.00703      -0.72614       0.86706
                        -----------------------------------------
Total Dipole Moment    :     -0.52746      -0.42867      -0.15182
                        -----------------------------------------
Magnitude (a.u.)       :      0.69644
Magnitude (Debye)      :      1.77020

                             ****ORCA TERMINATED NORMALLY****
TOTAL RUN TIME: 0 days 0 hours 0 minutes 6 seconds 710 msec
