                         Program Version 3.0.3 - RELEASE   -
|  1> ! RI PBE def2-SVP def2-SVP/J NBO PAL2
|  2> % maxcore 2000
|  3> % output
|  4>     # printlevel mini
|  5>     print[ P_Basis ] 0
|  6>     print[ P_SCFInfo ] 1
|  7>     print[ P_SCFIterInfo ] 1
|  8>     print[ P_OrbEn ] 0
|  9>     print[ P_Cartesian ] 0
| 10> end
| 11> *xyz 0 1
| 12>  N        1.1361360000    -0.2000150000     0.4024150000
| 13>  C        2.5119690000    -0.1527100000     0.0163800000
| 14>  C        2.9900700000    -0.6555140000    -1.3116920000
| 15>  O        2.0014370000    -1.1982150000    -2.1305420000
| 16>  C        2.9595530000     0.8256900000    -1.0464810000
| 17>  C        4.1687230000     1.6488270000    -0.8677780000
| 18>  C        5.4260260000     1.2598880000    -1.0455100000
| 19>  H        0.9715270000    -1.0261890000     0.9661780000
| 20>  H        0.5602790000    -0.3047070000    -0.4261280000
| 21>  H        3.1991790000    -0.2720290000     0.8467500000
| 22>  H        3.9537110000    -1.1566970000    -1.3628050000
| 23>  H        2.1662110000    -0.9162960000    -3.0340890000
| 24>  H        2.1202180000     1.3341870000    -1.5161490000
| 25>  H        3.9832960000     2.6682470000    -0.5341360000
| 26>  H        5.6811990000     0.2603680000    -1.3814610000
| 27>  H        6.2515540000     1.9362740000    -0.8596530000
| 28> *
| 29>
| 30>                          ****END OF INPUT****
 Total Charge           Charge          ....    0
 Multiplicity           Mult            ....    1
 Number of Electrons    NEL             ....   54
 Basis Dimension        Dim             ....  143

MULLIKEN ATOMIC CHARGES
-----------------------
   0 N :   -0.110662
   1 C :   -0.024434
   2 C :    0.069557
   3 O :   -0.242829
   4 C :   -0.077733
   5 C :    0.015629
   6 C :   -0.054761
   7 H :    0.096076
   8 H :    0.083943
   9 H :    0.024449
  10 H :    0.008959
  11 H :    0.166476
  12 H :    0.014831
  13 H :    0.000006
  14 H :    0.007147
  15 H :    0.023346
Sum of atomic charges:    0.0000000

LOEWDIN ATOMIC CHARGES
----------------------
   0 N :   -0.079086
   1 C :    0.006271
   2 C :    0.016836
   3 O :   -0.094689
   4 C :   -0.072128
   5 C :   -0.022556
   6 C :   -0.081077
   7 H :    0.061397
   8 H :    0.050871
   9 H :    0.026312
  10 H :    0.006769
  11 H :    0.078124
  12 H :    0.032827
  13 H :    0.029707
  14 H :    0.015881
  15 H :    0.024540

  Mayer bond orders larger than 0.1
B(  0-N ,  1-C ) :   1.1831 B(  0-N ,  7-H ) :   0.9616 B(  0-N ,  8-H ) :   0.9439
B(  1-C ,  2-C ) :   0.8956 B(  1-C ,  4-C ) :   0.9095 B(  1-C ,  9-H ) :   0.9353
B(  2-C ,  3-O ) :   1.1114 B(  2-C ,  4-C ) :   0.9072 B(  2-C , 10-H ) :   0.9311
B(  3-O , 11-H ) :   0.9796 B(  4-C ,  5-C ) :   1.0802 B(  4-C , 12-H ) :   0.9153
B(  5-C ,  6-C ) :   1.9732 B(  5-C , 13-H ) :   0.9521 B(  6-C , 14-H ) :   0.9367
B(  6-C , 15-H ) :   0.9423

FINAL SINGLE POINT ENERGY      -325.206279124126

DIPOLE MOMENT
-------------
                                X             Y             Z
Electronic contribution:     -1.98417      -1.23176      -0.94377
Nuclear contribution   :      2.04184       1.00637       0.54156
                        -----------------------------------------
Total Dipole Moment    :      0.05767      -0.22539      -0.40221
                        -----------------------------------------
Magnitude (a.u.)       :      0.46465
Magnitude (Debye)      :      1.18104

                             ****ORCA TERMINATED NORMALLY****
TOTAL RUN TIME: 0 days 0 hours 0 minutes 6 seconds 896 msec
