                         Program Version 3.0.3 - RELEASE   -
|  1> ! RI PBE def2-SVP def2-SVP/J NBO PAL2
|  2> % maxcore 2000
|  3> % output
|  4>     # printlevel mini
|  5>     print[ P_Basis ] 0
|  6>     print[ P_SCFInfo ] 1
|  7>     print[ P_SCFIterInfo ] 1
|  8>     print[ P_OrbEn ] 0
|  9>     print[ P_Cartesian ] 0
| 10> end
| 11> *xyz 0 1
| 12>  N        0.9964070000     0.1776710000     0.1536640000
| 13>  C        2.4166660000     0.0713720000     0.0426010000
| 14>  C        3.0767160000    -0.6307060000    -1.0964590000
| 15>  O        2.2148690000    -1.2027100000    -2.0209260000
| 16>  C        3.1286530000     0.8895570000    -1.0138080000
| 17>  C        4.3549180000     1.5589250000    -0.7244070000
| 18>  C        5.3985820000     2.1006260000    -0.4726260000
| 19>  H        0.6524920000    -0.5377430000     0.7834230000
| 20>  H        0.5709020000    -0.0075360000    -0.7481340000
| 21>  H        2.9240010000     0.0199040000     0.9985180000
| 22>  H        4.0072180000    -1.1642850000    -0.9175290000
| 23>  H        2.6076630000    -1.1294390000    -2.8949990000
| 24>  H        2.4609470000     1.3926580000    -1.7079160000
| 25>  H        6.3169840000     2.5887960000    -0.2486010000
| 26> *
| 27>
| 28>                          ****END OF INPUT****
 Total Charge           Charge          ....    0
 Multiplicity           Mult            ....    1
 Number of Electrons    NEL             ....   52
 Basis Dimension        Dim             ....  133

MULLIKEN ATOMIC CHARGES
-----------------------
   0 N :   -0.104837
   1 C :   -0.018094
   2 C :    0.091126
   3 O :   -0.230097
   4 C :   -0.156373
   5 C :    0.457442
   6 C :   -0.480981
   7 H :    0.098581
   8 H :    0.085417
   9 H :    0.030221
  10 H :    0.017153
  11 H :    0.169629
  12 H :    0.044507
  13 H :   -0.003692
Sum of atomic charges:   -0.0000000

LOEWDIN ATOMIC CHARGES
----------------------
   0 N :   -0.074397
   1 C :    0.010841
   2 C :    0.029884
   3 O :   -0.086912
   4 C :   -0.079535
   5 C :   -0.020417
   6 C :   -0.098566
   7 H :    0.062939
   8 H :    0.052014
   9 H :    0.031730
  10 H :    0.012689
  11 H :    0.081813
  12 H :    0.045285
  13 H :    0.032634

  Mayer bond orders larger than 0.1
B(  0-N ,  1-C ) :   1.1876 B(  0-N ,  7-H ) :   0.9612 B(  0-N ,  8-H ) :   0.9437
B(  1-C ,  2-C ) :   0.8891 B(  1-C ,  4-C ) :   0.8972 B(  1-C ,  9-H ) :   0.9367
B(  2-C ,  3-O ) :   1.1358 B(  2-C ,  4-C ) :   0.8819 B(  2-C , 10-H ) :   0.9378
B(  3-O , 11-H ) :   0.9759 B(  4-C ,  5-C ) :   1.0318 B(  4-C , 12-H ) :   0.9077
B(  5-C ,  6-C ) :   2.2572 B(  5-C , 13-H ) :  -0.1059 B(  6-C , 13-H ) :   1.0962

FINAL SINGLE POINT ENERGY      -323.965052709767

DIPOLE MOMENT
-------------
                                X             Y             Z
Electronic contribution:      1.30960       0.52232      -0.94579
Nuclear contribution   :     -1.28681      -1.11992       0.55920
                        -----------------------------------------
Total Dipole Moment    :      0.02279      -0.59760      -0.38658
                        -----------------------------------------
Magnitude (a.u.)       :      0.71210
Magnitude (Debye)      :      1.81003

                             ****ORCA TERMINATED NORMALLY****
TOTAL RUN TIME: 0 days 0 hours 0 minutes 6 seconds 365 msec
