                         Program Version 3.0.3 - RELEASE   -
|  1> ! RI PBE def2-SVP def2-SVP/J NBO PAL2
|  2> % maxcore 2000
|  3> % output
|  4>     # printlevel mini
|  5>     print[ P_Basis ] 0
|  6>     print[ P_SCFInfo ] 1
|  7>     print[ P_SCFIterInfo ] 1
|  8>     print[ P_OrbEn ] 0
|  9>     print[ P_Cartesian ] 0
| 10> end
| 11> *xyz 0 1
| 12>  N        0.8760890000    -0.0678590000     0.1942950000
| 13>  C        2.2929700000     0.0962860000     0.0723040000
| 14>  C        3.0786710000     1.2093780000     0.7870470000
| 15>  O        4.0369770000     0.2594910000     1.2661410000
| 16>  C        3.1813210000    -0.8457790000     0.9110400000
| 17>  C        3.8923420000    -1.9561370000     0.2367400000
| 18>  C        3.7248580000    -3.2356670000     0.5394600000
| 19>  H        0.3677910000     0.5213510000    -0.4508300000
| 20>  H        0.5550540000     0.1399310000     1.1317300000
| 21>  H        2.5641190000     0.0369460000    -0.9842460000
| 22>  H        2.5148840000     1.6705260000     1.6106410000
| 23>  H        3.5402150000     1.9938540000     0.1802980000
| 24>  H        2.6370420000    -1.2185050000     1.7912450000
| 25>  H        4.5652910000    -1.6623620000    -0.5662260000
| 26>  H        3.0646130000    -3.5416470000     1.3449740000
| 27>  H        4.2320730000    -4.0221060000    -0.0070830000
| 28> *
| 29>
| 30>                          ****END OF INPUT****
 Total Charge           Charge          ....    0
 Multiplicity           Mult            ....    1
 Number of Electrons    NEL             ....   54
 Basis Dimension        Dim             ....  143

MULLIKEN ATOMIC CHARGES
-----------------------
   0 N :   -0.127223
   1 C :   -0.126900
   2 C :    0.268364
   3 O :   -0.346341
   4 C :    0.154290
   5 C :   -0.002049
   6 C :   -0.013521
   7 H :    0.098299
   8 H :    0.084788
   9 H :    0.005826
  10 H :   -0.022715
  11 H :    0.009294
  12 H :   -0.026087
  13 H :   -0.003826
  14 H :    0.023204
  15 H :    0.024596
Sum of atomic charges:   -0.0000000

LOEWDIN ATOMIC CHARGES
----------------------
   0 N :   -0.080946
   1 C :   -0.013300
   2 C :    0.061655
   3 O :   -0.175752
   4 C :    0.062582
   5 C :   -0.040867
   6 C :   -0.041917
   7 H :    0.057387
   8 H :    0.049650
   9 H :    0.025727
  10 H :   -0.000493
  11 H :    0.008283
  12 H :    0.010090
  13 H :    0.027073
  14 H :    0.024292
  15 H :    0.026535

  Mayer bond orders larger than 0.1
B(  0-N ,  1-C ) :   1.1534 B(  0-N ,  7-H ) :   0.9633 B(  0-N ,  8-H ) :   0.9572
B(  1-C ,  2-C ) :   1.0362 B(  1-C ,  4-C ) :   1.0127 B(  1-C ,  9-H ) :   0.8945
B(  2-C ,  3-O ) :   1.0310 B(  2-C , 10-H ) :   0.9085 B(  2-C , 11-H ) :   0.9357
B(  3-O ,  4-C ) :   1.0222 B(  4-C ,  5-C ) :   1.0586 B(  4-C , 12-H ) :   0.8968
B(  5-C ,  6-C ) :   1.9753 B(  5-C , 13-H ) :   0.9429 B(  6-C , 14-H ) :   0.9479
B(  6-C , 15-H ) :   0.9359

FINAL SINGLE POINT ENERGY      -325.205037881511

DIPOLE MOMENT
-------------
                                X             Y             Z
Electronic contribution:      1.89005       0.96728       0.79521
Nuclear contribution   :     -2.59418      -0.59989      -1.10209
                        -----------------------------------------
Total Dipole Moment    :     -0.70413       0.36739      -0.30689
                        -----------------------------------------
Magnitude (a.u.)       :      0.85144
Magnitude (Debye)      :      2.16420

                             ****ORCA TERMINATED NORMALLY****
TOTAL RUN TIME: 0 days 0 hours 0 minutes 7 seconds 100 msec
