                         Program Version 3.0.3 - RELEASE   -
|  1> ! RI PBE def2-SVP def2-SVP/J NBO PAL2
|  2> % maxcore 2000
|  3> % output
|  4>     # printlevel mini
|  5>     print[ P_Basis ] 0
|  6>     print[ P_SCFInfo ] 1
|  7>     print[ P_SCFIterInfo ] 1
|  8>     print[ P_OrbEn ] 0
|  9>     print[ P_Cartesian ] 0
| 10> end
| 11> *xyz 0 1
| 12>  N        0.8579350000     0.0920150000     0.1166170000
| 13>  C        2.2868210000     0.1026510000     0.0966170000
| 14>  C        3.1321340000     1.0704430000     0.9444830000
| 15>  O        3.9361760000    -0.0093000000     1.4355160000
| 16>  C        3.0067750000    -0.9839590000     0.9274540000
| 17>  C        3.6255600000    -2.0971870000     0.2411270000
| 18>  C        4.1213050000    -3.0203670000    -0.3445080000
| 19>  H        0.4609750000     0.7291350000    -0.5593470000
| 20>  H        0.4877590000     0.3226760000     1.0299380000
| 21>  H        2.6296120000     0.0744470000    -0.9381120000
| 22>  H        2.5577230000     1.5489940000     1.7499490000
| 23>  H        3.7293170000     1.8247010000     0.4252030000
| 24>  H        2.3584590000    -1.3607850000     1.7314550000
| 25>  H        4.5664300000    -3.8384660000    -0.8597920000
| 26> *
| 27>
| 28>                          ****END OF INPUT****
 Total Charge           Charge          ....    0
 Multiplicity           Mult            ....    1
 Number of Electrons    NEL             ....   52
 Basis Dimension        Dim             ....  133

MULLIKEN ATOMIC CHARGES
-----------------------
   0 N :   -0.122862
   1 C :   -0.146523
   2 C :    0.274948
   3 O :   -0.335220
   4 C :    0.168802
   5 C :    0.414895
   6 C :   -0.474537
   7 H :    0.101094
   8 H :    0.087198
   9 H :    0.020416
  10 H :   -0.017715
  11 H :    0.013388
  12 H :    0.010648
  13 H :    0.005466
Sum of atomic charges:   -0.0000000

LOEWDIN ATOMIC CHARGES
----------------------
   0 N :   -0.077286
   1 C :   -0.004883
   2 C :    0.064308
   3 O :   -0.166313
   4 C :    0.053314
   5 C :   -0.027447
   6 C :   -0.061602
   7 H :    0.059378
   8 H :    0.051263
   9 H :    0.031872
  10 H :    0.001834
  11 H :    0.011624
  12 H :    0.027536
  13 H :    0.036403

  Mayer bond orders larger than 0.1
B(  0-N ,  1-C ) :   1.1554 B(  0-N ,  7-H ) :   0.9637 B(  0-N ,  8-H ) :   0.9566
B(  1-C ,  2-C ) :   1.0380 B(  1-C ,  4-C ) :   1.0137 B(  1-C ,  9-H ) :   0.9016
B(  2-C ,  3-O ) :   1.0238 B(  2-C , 10-H ) :   0.9102 B(  2-C , 11-H ) :   0.9364
B(  3-O ,  4-C ) :   1.0818 B(  4-C ,  5-C ) :   0.9881 B(  4-C , 12-H ) :   0.8656
B(  5-C ,  6-C ) :   2.3254 B(  5-C , 13-H ) :  -0.1014 B(  6-C , 13-H ) :   1.0912

FINAL SINGLE POINT ENERGY      -323.957814592001

DIPOLE MOMENT
-------------
                                X             Y             Z
Electronic contribution:      2.87395      -2.72324       0.59567
Nuclear contribution   :     -3.59569       3.33005      -0.92290
                        -----------------------------------------
Total Dipole Moment    :     -0.72174       0.60681      -0.32722
                        -----------------------------------------
Magnitude (a.u.)       :      0.99810
Magnitude (Debye)      :      2.53697

                             ****ORCA TERMINATED NORMALLY****
TOTAL RUN TIME: 0 days 0 hours 0 minutes 6 seconds 568 msec
