                         Program Version 3.0.3 - RELEASE   -
|  1> ! RI PBE def2-SVP def2-SVP/J NBO PAL2
|  2> % maxcore 2000
|  3> % output
|  4>     # printlevel mini
|  5>     print[ P_Basis ] 0
|  6>     print[ P_SCFInfo ] 1
|  7>     print[ P_SCFIterInfo ] 1
|  8>     print[ P_OrbEn ] 0
|  9>     print[ P_Cartesian ] 0
| 10> end
| 11> *xyz 0 1
| 12>  N        0.7830390000    -0.0691250000     0.2367960000
| 13>  C        2.2132520000    -0.0987690000     0.1074440000
| 14>  C        3.1132760000     0.9088720000     0.8512320000
| 15>  O        3.8539340000    -0.1510390000     1.4722190000
| 16>  C        2.9536120000    -1.1410750000     0.9539190000
| 17>  C        3.6830450000    -2.2612400000     0.2499250000
| 18>  O        2.7983970000    -3.1357920000    -0.4111520000
| 19>  H        0.3620470000     0.5871970000    -0.4071170000
| 20>  H        0.5019000000     0.1929480000     1.1740110000
| 21>  H        2.4644370000    -0.1921690000    -0.9509510000
| 22>  H        2.5707830000     1.5128700000     1.5905200000
| 23>  H        3.7558470000     1.5615800000     0.2524600000
| 24>  H        2.3096860000    -1.5498850000     1.7501160000
| 25>  H        4.3226220000    -2.7896470000     0.9711710000
| 26>  H        4.3357330000    -1.8384560000    -0.5179780000
| 27>  H        2.1450000000    -3.4502700000     0.2195930000
| 28> *
| 29>
| 30>                          ****END OF INPUT****
 Total Charge           Charge          ....    0
 Multiplicity           Mult            ....    1
 Number of Electrons    NEL             ....   56
 Basis Dimension        Dim             ....  143

MULLIKEN ATOMIC CHARGES
-----------------------
   0 N :   -0.129363
   1 C :   -0.153747
   2 C :    0.276133
   3 O :   -0.350170
   4 C :    0.068583
   5 C :    0.246210
   6 O :   -0.280756
   7 H :    0.097878
   8 H :    0.083785
   9 H :    0.012649
  10 H :   -0.019618
  11 H :    0.010295
  12 H :   -0.022409
  13 H :    0.007515
  14 H :   -0.002740
  15 H :    0.155755
Sum of atomic charges:   -0.0000000

LOEWDIN ATOMIC CHARGES
----------------------
   0 N :   -0.084949
   1 C :   -0.018539
   2 C :    0.065802
   3 O :   -0.174427
   4 C :    0.037603
   5 C :    0.046839
   6 O :   -0.114248
   7 H :    0.057196
   8 H :    0.049074
   9 H :    0.027007
  10 H :    0.001033
  11 H :    0.009244
  12 H :    0.000809
  13 H :    0.008351
  14 H :    0.019687
  15 H :    0.069517

  Mayer bond orders larger than 0.1
B(  0-N ,  1-C ) :   1.1403 B(  0-N ,  7-H ) :   0.9637 B(  0-N ,  8-H ) :   0.9573
B(  1-C ,  2-C ) :   1.0451 B(  1-C ,  4-C ) :   1.0133 B(  1-C ,  9-H ) :   0.9021
B(  2-C ,  3-O ) :   1.0326 B(  2-C , 10-H ) :   0.9101 B(  2-C , 11-H ) :   0.9331
B(  3-O ,  4-C ) :   1.0445 B(  4-C ,  5-C ) :   1.0415 B(  4-C , 12-H ) :   0.8899
B(  5-C ,  6-O ) :   1.0687 B(  5-C , 13-H ) :   0.9277 B(  5-C , 14-H ) :   0.9140
B(  6-O , 15-H ) :   0.9816

FINAL SINGLE POINT ENERGY      -362.281971652940

DIPOLE MOMENT
-------------
                                X             Y             Z
Electronic contribution:      1.23872      -1.26152       0.46330
Nuclear contribution   :     -1.89069       1.81165      -0.29592
                        -----------------------------------------
Total Dipole Moment    :     -0.65197       0.55013       0.16738
                        -----------------------------------------
Magnitude (a.u.)       :      0.86933
Magnitude (Debye)      :      2.20965

                             ****ORCA TERMINATED NORMALLY****
TOTAL RUN TIME: 0 days 0 hours 0 minutes 6 seconds 168 msec
