                         Program Version 3.0.3 - RELEASE   -
|  1> ! RI PBE def2-SVP def2-SVP/J NBO PAL2
|  2> % maxcore 2000
|  3> % output
|  4>     # printlevel mini
|  5>     print[ P_Basis ] 0
|  6>     print[ P_SCFInfo ] 1
|  7>     print[ P_SCFIterInfo ] 1
|  8>     print[ P_OrbEn ] 0
|  9>     print[ P_Cartesian ] 0
| 10> end
| 11> *xyz 0 1
| 12>  N        1.0985180000    -0.1462410000    -0.3736310000
| 13>  C        2.5131670000    -0.0965440000    -0.1389560000
| 14>  C        3.3229780000    -0.8728230000    -1.1396040000
| 15>  O        2.6400970000    -1.5639030000    -2.1220250000
| 16>  C        3.3500500000     0.6286050000    -1.1598740000
| 17>  C        4.5652050000     1.3797050000    -0.7078890000
| 18>  O        4.2709210000     2.5970420000    -0.0470720000
| 19>  H        0.6644830000     0.7597480000    -0.2556970000
| 20>  H        0.6448780000    -0.7955730000     0.2563210000
| 21>  H        2.8675480000    -0.0493210000     0.8886260000
| 22>  H        4.2101070000    -1.3974120000    -0.8011910000
| 23>  H        1.7123990000    -1.2972260000    -2.0119010000
| 24>  H        2.7934790000     1.0675690000    -1.9850450000
| 25>  H        5.2353050000     1.5511920000    -1.5611850000
| 26>  H        5.1205600000     0.7816240000     0.0196870000
| 27>  H        3.8290160000     3.1777480000    -0.6713640000
| 28> *
| 29>
| 30>                          ****END OF INPUT****
 Total Charge           Charge          ....    0
 Multiplicity           Mult            ....    1
 Number of Electrons    NEL             ....   56
 Basis Dimension        Dim             ....  143

MULLIKEN ATOMIC CHARGES
-----------------------
   0 N :   -0.163613
   1 C :   -0.063300
   2 C :    0.114988
   3 O :   -0.226646
   4 C :   -0.171900
   5 C :    0.264739
   6 O :   -0.290347
   7 H :    0.108450
   8 H :    0.107265
   9 H :    0.016235
  10 H :    0.011322
  11 H :    0.134796
  12 H :    0.008792
  13 H :    0.006021
  14 H :   -0.005646
  15 H :    0.148845
Sum of atomic charges:    0.0000000

LOEWDIN ATOMIC CHARGES
----------------------
   0 N :   -0.069924
   1 C :   -0.028794
   2 C :    0.039284
   3 O :   -0.097426
   4 C :   -0.091275
   5 C :    0.059546
   6 O :   -0.127902
   7 H :    0.061448
   8 H :    0.063189
   9 H :    0.009555
  10 H :    0.015884
  11 H :    0.046122
  12 H :    0.023444
  13 H :    0.010398
  14 H :    0.021208
  15 H :    0.065244

  Mayer bond orders larger than 0.1
B(  0-N ,  1-C ) :   1.1353 B(  0-N ,  7-H ) :   0.9658 B(  0-N ,  8-H ) :   0.9639
B(  0-N , 11-H ) :   0.1237 B(  1-C ,  2-C ) :   0.9078 B(  1-C ,  4-C ) :   0.9095
B(  1-C ,  9-H ) :   0.9396 B(  2-C ,  3-O ) :   1.1665 B(  2-C ,  4-C ) :   0.9008
B(  2-C , 10-H ) :   0.9492 B(  3-O , 11-H ) :   0.9369 B(  4-C ,  5-C ) :   1.0573
B(  4-C , 12-H ) :   0.9235 B(  5-C ,  6-O ) :   1.0530 B(  5-C , 13-H ) :   0.9326
B(  5-C , 14-H ) :   0.9189 B(  6-O , 15-H ) :   0.9882

FINAL SINGLE POINT ENERGY      -362.289421101246

DIPOLE MOMENT
-------------
                                X             Y             Z
Electronic contribution:     -0.02664      -0.59445      -0.78410
Nuclear contribution   :     -0.66860       1.04656       1.12073
                        -----------------------------------------
Total Dipole Moment    :     -0.69524       0.45211       0.33663
                        -----------------------------------------
Magnitude (a.u.)       :      0.89503
Magnitude (Debye)      :      2.27499

                             ****ORCA TERMINATED NORMALLY****
TOTAL RUN TIME: 0 days 0 hours 0 minutes 6 seconds 891 msec
