                         Program Version 3.0.3 - RELEASE   -
|  1> ! RI PBE def2-SVP def2-SVP/J NBO PAL2
|  2> % maxcore 2000
|  3> % output
|  4>     # printlevel mini
|  5>     print[ P_Basis ] 0
|  6>     print[ P_SCFInfo ] 1
|  7>     print[ P_SCFIterInfo ] 1
|  8>     print[ P_OrbEn ] 0
|  9>     print[ P_Cartesian ] 0
| 10> end
| 11> *xyz 0 1
| 12>  N        0.9711110000     0.1374840000     0.1851840000
| 13>  C        2.3693740000    -0.1322740000    -0.0986110000
| 14>  C        2.7553590000    -1.5791830000    -0.4662140000
| 15>  O        2.8418910000    -1.6439360000    -1.8825520000
| 16>  C        3.2360550000    -0.3809110000    -2.3419300000
| 17>  C        2.1151270000     0.5662520000    -2.5998400000
| 18>  C        2.8874820000     0.6345300000    -1.3063200000
| 19>  H        0.6600450000    -0.4026530000     0.9833670000
| 20>  H        0.3880070000    -0.1275340000    -0.5990720000
| 21>  H        2.9363280000     0.1787830000     0.7837270000
| 22>  H        2.0140190000    -2.3110030000    -0.1360030000
| 23>  H        3.7279730000    -1.8395540000    -0.0237830000
| 24>  H        4.1518750000    -0.3660320000    -2.9231120000
| 25>  H        1.1169030000     0.1457060000    -2.6118460000
| 26>  H        2.2715990000     1.3782040000    -3.3001530000
| 27>  H        3.5053520000     1.5065420000    -1.1380320000
| 28> *
| 29>
| 30>                          ****END OF INPUT****
 Total Charge           Charge          ....    0
 Multiplicity           Mult            ....    1
 Number of Electrons    NEL             ....   54
 Basis Dimension        Dim             ....  143

MULLIKEN ATOMIC CHARGES
-----------------------
   0 N :   -0.143155
   1 C :   -0.074950
   2 C :    0.311988
   3 O :   -0.330950
   4 C :    0.088200
   5 C :    0.005626
   6 C :   -0.095509
   7 H :    0.087542
   8 H :    0.078581
   9 H :    0.001715
  10 H :   -0.016226
  11 H :   -0.011861
  12 H :    0.016028
  13 H :    0.030654
  14 H :    0.029895
  15 H :    0.022421
Sum of atomic charges:    0.0000000

LOEWDIN ATOMIC CHARGES
----------------------
   0 N :   -0.090683
   1 C :   -0.008884
   2 C :    0.058730
   3 O :   -0.145011
   4 C :    0.045873
   5 C :   -0.048147
   6 C :   -0.046507
   7 H :    0.050090
   8 H :    0.045740
   9 H :    0.026843
  10 H :    0.010434
  11 H :    0.004721
  12 H :    0.012683
  13 H :    0.024447
  14 H :    0.031765
  15 H :    0.027906

  Mayer bond orders larger than 0.1
B(  0-N ,  1-C ) :   1.1118 B(  0-N ,  7-H ) :   0.9655 B(  0-N ,  8-H ) :   0.9610
B(  1-C ,  2-C ) :   1.0230 B(  1-C ,  6-C ) :   1.0589 B(  1-C ,  9-H ) :   0.9069
B(  2-C ,  3-O ) :   0.9955 B(  2-C , 10-H ) :   0.9261 B(  2-C , 11-H ) :   0.9131
B(  3-O ,  4-C ) :   1.0521 B(  4-C ,  5-C ) :   0.9871 B(  4-C ,  6-C ) :   0.9497
B(  4-C , 12-H ) :   0.9454 B(  5-C ,  6-C ) :   0.9771 B(  5-C , 13-H ) :   0.9276
B(  5-C , 14-H ) :   0.9300 B(  6-C , 15-H ) :   0.9504

FINAL SINGLE POINT ENERGY      -325.220642445636

DIPOLE MOMENT
-------------
                                X             Y             Z
Electronic contribution:      1.03655      -1.36150      -1.36398
Nuclear contribution   :     -0.99974       1.40613       1.67068
                        -----------------------------------------
Total Dipole Moment    :      0.03681       0.04462       0.30670
                        -----------------------------------------
Magnitude (a.u.)       :      0.31210
Magnitude (Debye)      :      0.79330

                             ****ORCA TERMINATED NORMALLY****
TOTAL RUN TIME: 0 days 0 hours 0 minutes 7 seconds 158 msec
