                         Program Version 3.0.3 - RELEASE   -
|  1> ! RI PBE def2-SVP def2-SVP/J NBO PAL2
|  2> % maxcore 2000
|  3> % output
|  4>     # printlevel mini
|  5>     print[ P_Basis ] 0
|  6>     print[ P_SCFInfo ] 1
|  7>     print[ P_SCFIterInfo ] 1
|  8>     print[ P_OrbEn ] 0
|  9>     print[ P_Cartesian ] 0
| 10> end
| 11> *xyz 0 1
| 12>  N        1.0115300000     0.0057020000     0.0021970000
| 13>  C        2.4462280000     0.0494720000     0.1355420000
| 14>  C        3.0762250000     1.1208020000     1.0326120000
| 15>  O        4.3735490000     0.6438370000     1.3077780000
| 16>  C        4.2819020000    -0.7632130000     1.4772390000
| 17>  C        3.0316450000    -1.1929580000     0.7575820000
| 18>  C        2.4913950000    -2.4007860000     0.7353210000
| 19>  H        0.6576040000     0.8407980000    -0.4456570000
| 20>  H        0.5682800000    -0.0799020000     0.9093520000
| 21>  H        2.8745310000     0.1667560000    -0.8687980000
| 22>  H        2.4804750000     1.2270150000     1.9549250000
| 23>  H        3.1666860000     2.1003860000     0.5590800000
| 24>  H        4.2269710000    -1.0190260000     2.5446640000
| 25>  H        5.1895640000    -1.2137590000     1.0665300000
| 26>  H        2.9522890000    -3.2418480000     1.2422000000
| 27>  H        1.5661070000    -2.5764860000     0.1987430000
| 28> *
| 29>
| 30>                          ****END OF INPUT****
 Total Charge           Charge          ....    0
 Multiplicity           Mult            ....    1
 Number of Electrons    NEL             ....   54
 Basis Dimension        Dim             ....  143

MULLIKEN ATOMIC CHARGES
-----------------------
   0 N :   -0.151552
   1 C :   -0.018709
   2 C :    0.239665
   3 O :   -0.357211
   4 C :    0.317401
   5 C :   -0.257170
   6 C :   -0.025541
   7 H :    0.094110
   8 H :    0.089313
   9 H :    0.029683
  10 H :   -0.018298
  11 H :    0.003812
  12 H :    0.008190
  13 H :    0.022383
  14 H :    0.005463
  15 H :    0.018461
Sum of atomic charges:   -0.0000000

LOEWDIN ATOMIC CHARGES
----------------------
   0 N :   -0.078528
   1 C :   -0.016925
   2 C :    0.047700
   3 O :   -0.155258
   4 C :    0.072089
   5 C :   -0.056751
   6 C :   -0.066080
   7 H :    0.056077
   8 H :    0.052662
   9 H :    0.037748
  10 H :   -0.003324
  11 H :    0.016242
  12 H :    0.018255
  13 H :    0.027881
  14 H :    0.022509
  15 H :    0.025702

  Mayer bond orders larger than 0.1
B(  0-N ,  1-C ) :   1.1461 B(  0-N ,  7-H ) :   0.9649 B(  0-N ,  8-H ) :   0.9589
B(  1-C ,  2-C ) :   1.0160 B(  1-C ,  5-C ) :   1.0054 B(  1-C ,  9-H ) :   0.8733
B(  2-C ,  3-O ) :   1.0128 B(  2-C , 10-H ) :   0.9158 B(  2-C , 11-H ) :   0.9325
B(  3-O ,  4-C ) :   1.0159 B(  4-C ,  5-C ) :   1.0140 B(  4-C , 12-H ) :   0.9156
B(  4-C , 13-H ) :   0.9258 B(  5-C ,  6-C ) :   2.0350 B(  6-C , 14-H ) :   0.9336
B(  6-C , 15-H ) :   0.9159

FINAL SINGLE POINT ENERGY      -325.231745938306

DIPOLE MOMENT
-------------
                                X             Y             Z
Electronic contribution:      2.20409       1.03441      -0.00004
Nuclear contribution   :     -2.65148      -0.84351       0.08858
                        -----------------------------------------
Total Dipole Moment    :     -0.44739       0.19090       0.08854
                        -----------------------------------------
Magnitude (a.u.)       :      0.49440
Magnitude (Debye)      :      1.25667

                             ****ORCA TERMINATED NORMALLY****
TOTAL RUN TIME: 0 days 0 hours 0 minutes 7 seconds 279 msec
