                         Program Version 3.0.3 - RELEASE   -
|  1> ! RI PBE def2-SVP def2-SVP/J NBO PAL2
|  2> % maxcore 2000
|  3> % output
|  4>     # printlevel mini
|  5>     print[ P_Basis ] 0
|  6>     print[ P_SCFInfo ] 1
|  7>     print[ P_SCFIterInfo ] 1
|  8>     print[ P_OrbEn ] 0
|  9>     print[ P_Cartesian ] 0
| 10> end
| 11> *xyz 0 1
| 12>  N        0.8351940000    -0.0411740000    -0.1859270000
| 13>  C        2.2263070000     0.0207550000    -0.0821340000
| 14>  C        3.0741060000     1.0805130000    -0.0926200000
| 15>  O        4.3615200000     0.6587480000    -0.0427610000
| 16>  C        4.3347740000    -0.6960070000    -0.0011990000
| 17>  C        3.0548650000    -1.1468180000    -0.0250840000
| 18>  N        2.5368560000    -2.4402660000     0.0666800000
| 19>  H        0.3921800000     0.8636160000    -0.1294690000
| 20>  H        0.4344670000    -0.6598520000     0.5074950000
| 21>  H        2.9177400000     2.1453170000    -0.1401320000
| 22>  H        5.2880350000    -1.1950540000     0.0513450000
| 23>  H        3.2454180000    -3.1565460000     0.0122400000
| 24>  H        1.8266190000    -2.6105440000    -0.6338440000
| 25> *
| 26>
| 27>                          ****END OF INPUT****
 Total Charge           Charge          ....    0
 Multiplicity           Mult            ....    1
 Number of Electrons    NEL             ....   52
 Basis Dimension        Dim             ....  128

MULLIKEN ATOMIC CHARGES
-----------------------
   0 N :   -0.079783
   1 C :    0.019473
   2 C :   -0.040839
   3 O :   -0.173467
   4 C :   -0.027931
   5 C :    0.011223
   6 N :   -0.078095
   7 H :    0.100028
   8 H :    0.111368
   9 H :   -0.023565
  10 H :   -0.028272
  11 H :    0.100100
  12 H :    0.109759
Sum of atomic charges:   -0.0000000

LOEWDIN ATOMIC CHARGES
----------------------
   0 N :   -0.046059
   1 C :   -0.064808
   2 C :   -0.045858
   3 O :    0.018629
   4 C :   -0.043399
   5 C :   -0.065819
   6 N :   -0.045774
   7 H :    0.067971
   8 H :    0.066523
   9 H :    0.012594
  10 H :    0.011937
  11 H :    0.067906
  12 H :    0.066158

  Mayer bond orders larger than 0.1
B(  0-N ,  1-C ) :   1.1798 B(  0-N ,  7-H ) :   0.9493 B(  0-N ,  8-H ) :   0.9393
B(  1-C ,  2-C ) :   1.4328 B(  1-C ,  5-C ) :   1.3062 B(  2-C ,  3-O ) :   1.1285
B(  2-C ,  9-H ) :   1.0298 B(  3-O ,  4-C ) :   1.1271 B(  4-C ,  5-C ) :   1.4406
B(  4-C , 10-H ) :   1.0257 B(  5-C ,  6-N ) :   1.1788 B(  6-N , 11-H ) :   0.9499
B(  6-N , 12-H ) :   0.9396

FINAL SINGLE POINT ENERGY      -340.082495690106

DIPOLE MOMENT
-------------
                                X             Y             Z
Electronic contribution:      2.44624       1.73331       0.01526
Nuclear contribution   :     -3.03429      -2.15440      -0.01890
                        -----------------------------------------
Total Dipole Moment    :     -0.58805      -0.42109      -0.00364
                        -----------------------------------------
Magnitude (a.u.)       :      0.72328
Magnitude (Debye)      :      1.83843

                             ****ORCA TERMINATED NORMALLY****
TOTAL RUN TIME: 0 days 0 hours 0 minutes 6 seconds 337 msec
