                         Program Version 3.0.3 - RELEASE   -
|  1> ! RI PBE def2-SVP def2-SVP/J NBO PAL2
|  2> % maxcore 2000
|  3> % output
|  4>     # printlevel mini
|  5>     print[ P_Basis ] 0
|  6>     print[ P_SCFInfo ] 1
|  7>     print[ P_SCFIterInfo ] 1
|  8>     print[ P_OrbEn ] 0
|  9>     print[ P_Cartesian ] 0
| 10> end
| 11> *xyz 0 1
| 12>  N        1.0066860000    -0.0465980000    -0.2779570000
| 13>  C        2.4124880000     0.0348910000     0.0483350000
| 14>  C        2.8640990000     1.0567850000     1.0835720000
| 15>  O        4.1126830000     0.5960160000     1.5652650000
| 16>  C        4.2476820000    -0.7939320000     1.2939950000
| 17>  C        2.9360690000    -1.2580900000     0.6800590000
| 18>  N        3.0868990000    -2.4159180000    -0.1672310000
| 19>  H        0.6976500000     0.7636470000    -0.7993330000
| 20>  H        0.4461650000    -0.0939020000     0.5658720000
| 21>  H        2.9649850000     0.2006830000    -0.8849530000
| 22>  H        2.1270500000     1.1088930000     1.9015510000
| 23>  H        2.9954570000     2.0656000000     0.6821300000
| 24>  H        4.4955750000    -1.3255720000     2.2163900000
| 25>  H        5.0727050000    -0.9465450000     0.5844140000
| 26>  H        2.2384960000    -1.5282840000     1.4849080000
| 27>  H        3.7386440000    -2.2150900000    -0.9183620000
| 28>  H        2.1960860000    -2.6304950000    -0.6013460000
| 29> *
| 30>
| 31>                          ****END OF INPUT****
 Total Charge           Charge          ....    0
 Multiplicity           Mult            ....    1
 Number of Electrons    NEL             ....   56
 Basis Dimension        Dim             ....  148

MULLIKEN ATOMIC CHARGES
-----------------------
   0 N :   -0.150273
   1 C :   -0.103785
   2 C :    0.270444
   3 O :   -0.365984
   4 C :    0.292540
   5 C :   -0.126360
   6 N :   -0.141429
   7 H :    0.095119
   8 H :    0.086723
   9 H :   -0.006992
  10 H :   -0.020061
  11 H :   -0.000810
  12 H :    0.008095
  13 H :   -0.011195
  14 H :    0.002003
  15 H :    0.082057
  16 H :    0.089907
Sum of atomic charges:    0.0000000

LOEWDIN ATOMIC CHARGES
----------------------
   0 N :   -0.087236
   1 C :   -0.040033
   2 C :    0.048202
   3 O :   -0.163955
   4 C :    0.070706
   5 C :   -0.024573
   6 N :   -0.086969
   7 H :    0.055791
   8 H :    0.050393
   9 H :    0.018476
  10 H :   -0.001842
  11 H :    0.013173
  12 H :    0.016902
  13 H :    0.007268
  14 H :    0.021777
  15 H :    0.048399
  16 H :    0.053521

  Mayer bond orders larger than 0.1
B(  0-N ,  1-C ) :   1.1223 B(  0-N ,  7-H ) :   0.9659 B(  0-N ,  8-H ) :   0.9610
B(  1-C ,  2-C ) :   1.0220 B(  1-C ,  5-C ) :   0.9832 B(  1-C ,  9-H ) :   0.8890
B(  2-C ,  3-O ) :   1.0206 B(  2-C , 10-H ) :   0.9174 B(  2-C , 11-H ) :   0.9301
B(  3-O ,  4-C ) :   1.0110 B(  4-C ,  5-C ) :   1.0539 B(  4-C , 12-H ) :   0.9318
B(  4-C , 13-H ) :   0.9268 B(  5-C ,  6-N ) :   1.1347 B(  5-C , 14-H ) :   0.8965
B(  6-N , 15-H ) :   0.9606 B(  6-N , 16-H ) :   0.9578

FINAL SINGLE POINT ENERGY      -342.468589629920

DIPOLE MOMENT
-------------
                                X             Y             Z
Electronic contribution:      1.58870       0.87277       1.12458
Nuclear contribution   :     -2.24241      -0.53304      -1.57086
                        -----------------------------------------
Total Dipole Moment    :     -0.65371       0.33973      -0.44628
                        -----------------------------------------
Magnitude (a.u.)       :      0.86135
Magnitude (Debye)      :      2.18938

                             ****ORCA TERMINATED NORMALLY****
TOTAL RUN TIME: 0 days 0 hours 0 minutes 7 seconds 710 msec
