                         Program Version 3.0.3 - RELEASE   -
|  1> ! RI PBE def2-SVP def2-SVP/J NBO PAL2
|  2> % maxcore 2000
|  3> % output
|  4>     # printlevel mini
|  5>     print[ P_Basis ] 0
|  6>     print[ P_SCFInfo ] 1
|  7>     print[ P_SCFIterInfo ] 1
|  8>     print[ P_OrbEn ] 0
|  9>     print[ P_Cartesian ] 0
| 10> end
| 11> *xyz 0 1
| 12>  N        0.9658190000     0.0083260000    -0.1033390000
| 13>  C        2.3335740000     0.0508730000    -0.0986900000
| 14>  C        3.1988850000     1.1011130000    -0.0942720000
| 15>  O        4.4885980000     0.6615880000    -0.0907560000
| 16>  C        4.4505940000    -0.6888950000    -0.0929210000
| 17>  C        3.1630730000    -1.1133330000    -0.0977490000
| 18>  O        2.6257020000    -2.3604120000    -0.1013600000
| 19>  H        0.4153590000     0.8421760000    -0.1027320000
| 20>  H        0.5023300000    -0.8780150000    -0.1050330000
| 21>  H        3.0567560000     2.1680660000    -0.0931400000
| 22>  H        5.3957780000    -1.2061110000    -0.0906250000
| 23>  H        3.3282330000    -3.0148670000    -0.1001730000
| 24> *
| 25>
| 26>                          ****END OF INPUT****
 Total Charge           Charge          ....    0
 Multiplicity           Mult            ....    1
 Number of Electrons    NEL             ....   52
 Basis Dimension        Dim             ....  123

MULLIKEN ATOMIC CHARGES
-----------------------
   0 N :   -0.062286
   1 C :    0.053244
   2 C :   -0.053780
   3 O :   -0.178604
   4 C :   -0.022744
   5 C :    0.103721
   6 O :   -0.181531
   7 H :    0.105132
   8 H :    0.109596
   9 H :   -0.025100
  10 H :   -0.021589
  11 H :    0.173941
Sum of atomic charges:   -0.0000000

LOEWDIN ATOMIC CHARGES
----------------------
   0 N :   -0.017007
   1 C :   -0.052223
   2 C :   -0.057144
   3 O :    0.016215
   4 C :   -0.059235
   5 C :   -0.040268
   6 O :   -0.044364
   7 H :    0.068767
   8 H :    0.069648
   9 H :    0.011480
  10 H :    0.012794
  11 H :    0.091336

  Mayer bond orders larger than 0.1
B(  0-N ,  1-C ) :   1.2402 B(  0-N ,  7-H ) :   0.9506 B(  0-N ,  8-H ) :   0.9451
B(  1-C ,  2-C ) :   1.4212 B(  1-C ,  5-C ) :   1.2715 B(  2-C ,  3-O ) :   1.1040
B(  2-C ,  4-C ) :   0.1012 B(  2-C ,  9-H ) :   1.0339 B(  3-O ,  4-C ) :   1.1317
B(  4-C ,  5-C ) :   1.4266 B(  4-C , 10-H ) :   1.0173 B(  5-C ,  6-O ) :   1.1924
B(  6-O , 11-H ) :   0.9663

FINAL SINGLE POINT ENERGY      -359.916205296911

DIPOLE MOMENT
-------------
                                X             Y             Z
Electronic contribution:      1.73569      -0.27960       0.00484
Nuclear contribution   :     -2.19123      -0.22104      -0.00568
                        -----------------------------------------
Total Dipole Moment    :     -0.45554      -0.50065      -0.00084
                        -----------------------------------------
Magnitude (a.u.)       :      0.67688
Magnitude (Debye)      :      1.72049

                             ****ORCA TERMINATED NORMALLY****
TOTAL RUN TIME: 0 days 0 hours 0 minutes 5 seconds 500 msec
