                         Program Version 3.0.3 - RELEASE   -
|  1> ! RI PBE def2-SVP def2-SVP/J NBO PAL2
|  2> % maxcore 2000
|  3> % output
|  4>     # printlevel mini
|  5>     print[ P_Basis ] 0
|  6>     print[ P_SCFInfo ] 1
|  7>     print[ P_SCFIterInfo ] 1
|  8>     print[ P_OrbEn ] 0
|  9>     print[ P_Cartesian ] 0
| 10> end
| 11> *xyz 0 1
| 12>  N        1.0389350000    -0.0477820000    -0.1940620000
| 13>  C        2.4407280000     0.0077230000     0.1400280000
| 14>  C        2.9080600000     1.0696050000     1.1302570000
| 15>  O        4.1577360000     0.6275310000     1.6283260000
| 16>  C        4.2850750000    -0.7695000000     1.4071770000
| 17>  C        2.9569730000    -1.2526490000     0.8271970000
| 18>  O        3.0511820000    -2.4051910000     0.0374620000
| 19>  H        0.7296430000     0.8108930000    -0.6314650000
| 20>  H        0.4752460000    -0.1892610000     0.6361050000
| 21>  H        3.0062620000     0.1316290000    -0.7946680000
| 22>  H        2.1744400000     1.1629860000     1.9468550000
| 23>  H        3.0395560000     2.0567410000     0.6785630000
| 24>  H        4.5436190000    -1.2677050000     2.3455330000
| 25>  H        5.0921020000    -0.9612380000     0.6869810000
| 26>  H        2.2669170000    -1.5116390000     1.6391130000
| 27>  H        3.4212160000    -2.1628330000    -0.8163020000
| 28> *
| 29>
| 30>                          ****END OF INPUT****
 Total Charge           Charge          ....    0
 Multiplicity           Mult            ....    1
 Number of Electrons    NEL             ....   56
 Basis Dimension        Dim             ....  143

MULLIKEN ATOMIC CHARGES
-----------------------
   0 N :   -0.137142
   1 C :   -0.136227
   2 C :    0.257616
   3 O :   -0.363044
   4 C :    0.279033
   5 C :    0.027060
   6 O :   -0.246569
   7 H :    0.093595
   8 H :    0.089031
   9 H :   -0.000958
  10 H :   -0.016077
  11 H :    0.002357
  12 H :    0.007420
  13 H :   -0.015588
  14 H :    0.003967
  15 H :    0.155525
Sum of atomic charges:   -0.0000000

LOEWDIN ATOMIC CHARGES
----------------------
   0 N :   -0.082884
   1 C :   -0.040655
   2 C :    0.049158
   3 O :   -0.163030
   4 C :    0.054720
   5 C :    0.022755
   6 O :   -0.093857
   7 H :    0.055172
   8 H :    0.051894
   9 H :    0.020222
  10 H :   -0.000618
  11 H :    0.014147
  12 H :    0.016045
  13 H :    0.005471
  14 H :    0.022265
  15 H :    0.069194

  Mayer bond orders larger than 0.1
B(  0-N ,  1-C ) :   1.1354 B(  0-N ,  7-H ) :   0.9672 B(  0-N ,  8-H ) :   0.9612
B(  1-C ,  2-C ) :   1.0148 B(  1-C ,  5-C ) :   1.0073 B(  1-C ,  9-H ) :   0.8894
B(  2-C ,  3-O ) :   1.0167 B(  2-C , 10-H ) :   0.9220 B(  2-C , 11-H ) :   0.9298
B(  3-O ,  4-C ) :   1.0091 B(  4-C ,  5-C ) :   1.0245 B(  4-C , 12-H ) :   0.9313
B(  4-C , 13-H ) :   0.9203 B(  5-C ,  6-O ) :   1.0988 B(  5-C , 14-H ) :   0.8978
B(  6-O , 15-H ) :   0.9772

FINAL SINGLE POINT ENERGY      -362.304862254839

DIPOLE MOMENT
-------------
                                X             Y             Z
Electronic contribution:      1.50326      -1.14458       0.25122
Nuclear contribution   :     -1.83346       1.64886      -0.53797
                        -----------------------------------------
Total Dipole Moment    :     -0.33020       0.50428      -0.28675
                        -----------------------------------------
Magnitude (a.u.)       :      0.66750
Magnitude (Debye)      :      1.69664

                             ****ORCA TERMINATED NORMALLY****
TOTAL RUN TIME: 0 days 0 hours 0 minutes 7 seconds 345 msec
