                         Program Version 3.0.3 - RELEASE   -
|  1> ! RI PBE def2-SVP def2-SVP/J NBO PAL2
|  2> % maxcore 2000
|  3> % output
|  4>     # printlevel mini
|  5>     print[ P_Basis ] 0
|  6>     print[ P_SCFInfo ] 1
|  7>     print[ P_SCFIterInfo ] 1
|  8>     print[ P_OrbEn ] 0
|  9>     print[ P_Cartesian ] 0
| 10> end
| 11> *xyz 0 1
| 12>  N        0.9560240000     0.0253480000    -0.0305680000
| 13>  C        2.3877720000     0.0344910000     0.0534280000
| 14>  C        2.8320020000     0.1452360000     1.4993120000
| 15>  O        4.2363440000     0.0691030000     1.6933170000
| 16>  C        3.2366310000    -0.7484430000    -0.9317210000
| 17>  C        3.1764690000     0.7519790000    -0.9925170000
| 18>  O        4.2672230000     1.5451380000    -0.6810540000
| 19>  H        0.5816300000    -0.9119500000    -0.0978120000
| 20>  H        0.6118890000     0.5669720000    -0.8098390000
| 21>  H        2.3135940000    -0.6176300000     2.0923810000
| 22>  H        2.5219420000     1.1195840000     1.8836050000
| 23>  H        4.5086230000    -0.8478210000     1.6087440000
| 24>  H        2.7230700000    -1.3237220000    -1.6934590000
| 25>  H        4.1721350000    -1.1794930000    -0.5911560000
| 26>  H        2.6163230000     1.1848140000    -1.8156960000
| 27>  H        4.6386390000     1.2133120000     0.1490330000
| 28> *
| 29>
| 30>                          ****END OF INPUT****
 Total Charge           Charge          ....    0
 Multiplicity           Mult            ....    1
 Number of Electrons    NEL             ....   56
 Basis Dimension        Dim             ....  143

MULLIKEN ATOMIC CHARGES
-----------------------
   0 N :   -0.118454
   1 C :   -0.279693
   2 C :    0.280763
   3 O :   -0.293765
   4 C :   -0.006234
   5 C :    0.099630
   6 O :   -0.227315
   7 H :    0.092768
   8 H :    0.086518
   9 H :    0.006650
  10 H :    0.018774
  11 H :    0.165024
  12 H :    0.017371
  13 H :    0.002561
  14 H :    0.011205
  15 H :    0.144197
Sum of atomic charges:   -0.0000000

LOEWDIN ATOMIC CHARGES
----------------------
   0 N :   -0.070727
   1 C :   -0.074380
   2 C :    0.063104
   3 O :   -0.100799
   4 C :   -0.087271
   5 C :    0.040965
   6 O :   -0.093885
   7 H :    0.053415
   8 H :    0.054808
   9 H :    0.013115
  10 H :    0.027032
  11 H :    0.070944
  12 H :    0.023316
  13 H :    0.015179
  14 H :    0.018743
  15 H :    0.046441

  Mayer bond orders larger than 0.1
B(  0-N ,  1-C ) :   1.1078 B(  0-N ,  7-H ) :   0.9623 B(  0-N ,  8-H ) :   0.9602
B(  1-C ,  2-C ) :   0.9778 B(  1-C ,  4-C ) :   0.9365 B(  1-C ,  5-C ) :   0.8979
B(  2-C ,  3-O ) :   0.9975 B(  2-C ,  9-H ) :   0.9428 B(  2-C , 10-H ) :   0.9331
B(  3-O , 11-H ) :   0.9738 B(  3-O , 15-H ) :   0.1127 B(  4-C ,  5-C ) :   0.9387
B(  4-C , 12-H ) :   0.9263 B(  4-C , 13-H ) :   0.9217 B(  5-C ,  6-O ) :   1.1830
B(  5-C , 14-H ) :   0.9471 B(  6-O , 15-H ) :   0.9373

FINAL SINGLE POINT ENERGY      -362.288351527482

DIPOLE MOMENT
-------------
                                X             Y             Z
Electronic contribution:      2.07295       1.92175       0.29033
Nuclear contribution   :     -2.52859      -2.99037      -0.29392
                        -----------------------------------------
Total Dipole Moment    :     -0.45564      -1.06862      -0.00359
                        -----------------------------------------
Magnitude (a.u.)       :      1.16171
Magnitude (Debye)      :      2.95283

                             ****ORCA TERMINATED NORMALLY****
TOTAL RUN TIME: 0 days 0 hours 0 minutes 7 seconds 289 msec
