                         Program Version 3.0.3 - RELEASE   -
|  1> ! RI PBE def2-SVP def2-SVP/J NBO PAL2
|  2> % maxcore 2000
|  3> % output
|  4>     # printlevel mini
|  5>     print[ P_Basis ] 0
|  6>     print[ P_SCFInfo ] 1
|  7>     print[ P_SCFIterInfo ] 1
|  8>     print[ P_OrbEn ] 0
|  9>     print[ P_Cartesian ] 0
| 10> end
| 11> *xyz 0 1
| 12>  N        1.4773840000     0.4702000000     1.2509530000
| 13>  C        2.3653490000     0.0692080000     0.1863220000
| 14>  C        3.7569240000     0.7261720000     0.3841260000
| 15>  O        3.8171650000     1.9617510000     1.0482260000
| 16>  C        4.1824930000    -0.4980060000     1.1950190000
| 17>  C        3.0460220000    -1.2787360000     0.5011230000
| 18>  O        3.4354490000    -1.8895120000    -0.7104790000
| 19>  H        0.5139820000     0.2576140000     1.0348110000
| 20>  H        1.5657300000     1.4637380000     1.4249190000
| 21>  H        1.9405910000     0.1305000000    -0.8237210000
| 22>  H        4.2873190000     0.7619210000    -0.5709130000
| 23>  H        3.9049660000     2.6616580000     0.3977860000
| 24>  H        3.9563580000    -0.3442250000     2.2505920000
| 25>  H        5.2032160000    -0.8680700000     1.0795500000
| 26>  H        2.4611470000    -1.9574560000     1.1296000000
| 27>  H        4.0511840000    -2.5977570000    -0.5066150000
| 28> *
| 29>
| 30>                          ****END OF INPUT****
 Total Charge           Charge          ....    0
 Multiplicity           Mult            ....    1
 Number of Electrons    NEL             ....   56
 Basis Dimension        Dim             ....  143

MULLIKEN ATOMIC CHARGES
-----------------------
   0 N :   -0.153027
   1 C :   -0.073999
   2 C :    0.061167
   3 O :   -0.229159
   4 C :    0.088877
   5 C :    0.079408
   6 O :   -0.252158
   7 H :    0.091321
   8 H :    0.085563
   9 H :   -0.012948
  10 H :   -0.001321
  11 H :    0.156457
  12 H :    0.019690
  13 H :   -0.001044
  14 H :   -0.014214
  15 H :    0.155386
Sum of atomic charges:    0.0000000

LOEWDIN ATOMIC CHARGES
----------------------
   0 N :   -0.093683
   1 C :   -0.018050
   2 C :    0.046894
   3 O :   -0.099686
   4 C :   -0.054839
   5 C :    0.046849
   6 O :   -0.115781
   7 H :    0.053925
   8 H :    0.042888
   9 H :   -0.006828
  10 H :    0.011208
  11 H :    0.073523
  12 H :    0.035437
  13 H :    0.012595
  14 H :   -0.003484
  15 H :    0.069032

  Mayer bond orders larger than 0.1
B(  0-N ,  1-C ) :   1.1277 B(  0-N ,  7-H ) :   0.9656 B(  0-N ,  8-H ) :   0.9429
B(  1-C ,  2-C ) :   0.9991 B(  1-C ,  5-C ) :   0.9932 B(  1-C ,  9-H ) :   0.9101
B(  2-C ,  3-O ) :   1.1609 B(  2-C ,  4-C ) :   1.0668 B(  2-C , 10-H ) :   0.9320
B(  3-O , 11-H ) :   0.9787 B(  4-C ,  5-C ) :   1.0536 B(  4-C , 12-H ) :   0.8887
B(  4-C , 13-H ) :   0.9223 B(  5-C ,  6-O ) :   1.0989 B(  5-C , 14-H ) :   0.9115
B(  6-O , 15-H ) :   0.9803

FINAL SINGLE POINT ENERGY      -362.292423465830

DIPOLE MOMENT
-------------
                                X             Y             Z
Electronic contribution:      0.55690       0.31170      -0.89805
Nuclear contribution   :     -0.46153      -0.08461       0.52084
                        -----------------------------------------
Total Dipole Moment    :      0.09537       0.22709      -0.37721
                        -----------------------------------------
Magnitude (a.u.)       :      0.45050
Magnitude (Debye)      :      1.14509

                             ****ORCA TERMINATED NORMALLY****
TOTAL RUN TIME: 0 days 0 hours 0 minutes 7 seconds 3 msec
