                         Program Version 3.0.3 - RELEASE   -
|  1> ! RI PBE def2-SVP def2-SVP/J NBO PAL2
|  2> % maxcore 2000
|  3> % output
|  4>     # printlevel mini
|  5>     print[ P_Basis ] 0
|  6>     print[ P_SCFInfo ] 1
|  7>     print[ P_SCFIterInfo ] 1
|  8>     print[ P_OrbEn ] 0
|  9>     print[ P_Cartesian ] 0
| 10> end
| 11> *xyz 0 1
| 12>  N        1.0231480000     0.0273100000     0.0284010000
| 13>  C        2.4657920000     0.0647370000    -0.0270760000
| 14>  C        2.8428150000     0.0324540000    -1.5024960000
| 15>  O        4.2280730000     0.0215890000    -1.7589590000
| 16>  C        3.2487130000     1.1344030000     0.7929400000
| 17>  C        4.1622670000     0.0220590000     1.3408680000
| 18>  C        3.1690300000    -1.0278980000     0.8079550000
| 19>  H        0.6167830000     0.8298640000    -0.4396150000
| 20>  H        0.6982800000     0.0401220000     0.9870400000
| 21>  H        2.3579730000     0.8809040000    -2.0112990000
| 22>  H        2.4396760000    -0.8845460000    -1.9375360000
| 23>  H        4.5905540000     0.8790680000    -1.5234080000
| 24>  H        2.6126540000     1.5726330000     1.5658630000
| 25>  H        3.7184560000     1.9575350000     0.2435700000
| 26>  H        4.3418740000     0.0264280000     2.4165420000
| 27>  H        5.1222290000    -0.0274830000     0.8276910000
| 28>  H        2.5064100000    -1.4161000000     1.5852480000
| 29>  H        3.5841030000    -1.8682600000     0.2497800000
| 30> *
| 31>
| 32>                          ****END OF INPUT****
 Total Charge           Charge          ....    0
 Multiplicity           Mult            ....    1
 Number of Electrons    NEL             ....   56
 Basis Dimension        Dim             ....  153

MULLIKEN ATOMIC CHARGES
-----------------------
   0 N :   -0.115372
   1 C :   -0.408543
   2 C :    0.243921
   3 O :   -0.276189
   4 C :    0.113373
   5 C :   -0.026574
   6 C :    0.164992
   7 H :    0.084236
   8 H :    0.078745
   9 H :   -0.010493
  10 H :    0.013740
  11 H :    0.154110
  12 H :   -0.021392
  13 H :   -0.010087
  14 H :    0.007152
  15 H :    0.009094
  16 H :   -0.012583
  17 H :    0.011870
Sum of atomic charges:   -0.0000000

LOEWDIN ATOMIC CHARGES
----------------------
   0 N :   -0.080459
   1 C :   -0.043155
   2 C :    0.058965
   3 O :   -0.110623
   4 C :   -0.053956
   5 C :   -0.038288
   6 C :   -0.024505
   7 H :    0.049386
   8 H :    0.047345
   9 H :    0.000935
  10 H :    0.022954
  11 H :    0.065182
  12 H :    0.018807
  13 H :    0.005129
  14 H :    0.018105
  15 H :    0.020175
  16 H :    0.021242
  17 H :    0.022760

  Mayer bond orders larger than 0.1
B(  0-N ,  1-C ) :   1.0904 B(  0-N ,  7-H ) :   0.9585 B(  0-N ,  8-H ) :   0.9458
B(  1-C ,  2-C ) :   0.9576 B(  1-C ,  4-C ) :   1.0260 B(  1-C ,  6-C ) :   1.0404
B(  2-C ,  3-O ) :   1.0864 B(  2-C ,  9-H ) :   0.9396 B(  2-C , 10-H ) :   0.9305
B(  3-O , 11-H ) :   0.9803 B(  4-C ,  5-C ) :   1.1658 B(  4-C ,  6-C ) :  -0.1030
B(  4-C , 12-H ) :   0.8797 B(  4-C , 13-H ) :   0.9230 B(  5-C ,  6-C ) :   1.1582
B(  5-C , 14-H ) :   0.9143 B(  5-C , 15-H ) :   0.9169 B(  6-C , 16-H ) :   0.8957
B(  6-C , 17-H ) :   0.9150

FINAL SINGLE POINT ENERGY      -326.433219456770

DIPOLE MOMENT
-------------
                                X             Y             Z
Electronic contribution:      0.36276      -0.51016      -2.29704
Nuclear contribution   :     -0.60497       1.31091       2.71645
                        -----------------------------------------
Total Dipole Moment    :     -0.24221       0.80075       0.41941
                        -----------------------------------------
Magnitude (a.u.)       :      0.93583
Magnitude (Debye)      :      2.37868

                             ****ORCA TERMINATED NORMALLY****
TOTAL RUN TIME: 0 days 0 hours 0 minutes 7 seconds 938 msec
