                         Program Version 3.0.3 - RELEASE   -
|  1> ! RI PBE def2-SVP def2-SVP/J NBO PAL2
|  2> % maxcore 2000
|  3> % output
|  4>     # printlevel mini
|  5>     print[ P_Basis ] 0
|  6>     print[ P_SCFInfo ] 1
|  7>     print[ P_SCFIterInfo ] 1
|  8>     print[ P_OrbEn ] 0
|  9>     print[ P_Cartesian ] 0
| 10> end
| 11> *xyz 0 1
| 12>  N        1.0656720000     0.0499820000     0.6989160000
| 13>  C        2.3900300000    -0.0608520000     0.1128980000
| 14>  C        2.6165140000     1.1293650000    -0.8047640000
| 15>  O        3.9127490000     1.1234710000    -1.3805080000
| 16>  C        4.2954110000    -0.0779210000    -1.8689450000
| 17>  C        3.6826070000    -1.2348110000    -1.6322640000
| 18>  C        2.5091320000    -1.3344280000    -0.7092290000
| 19>  H        1.0331110000     0.7940950000     1.3853940000
| 20>  H        0.8187380000    -0.8066450000     1.1793050000
| 21>  H        3.2008540000    -0.0603830000     0.8589720000
| 22>  H        2.5323860000     2.0727020000    -0.2613040000
| 23>  H        1.8606810000     1.1150650000    -1.5997640000
| 24>  H        5.1818190000     0.0088160000    -2.4865960000
| 25>  H        4.0783820000    -2.1276800000    -2.0997250000
| 26>  H        2.6239790000    -2.1987990000    -0.0449230000
| 27>  H        1.5738540000    -1.4894750000    -1.2618830000
| 28> *
| 29>
| 30>                          ****END OF INPUT****
 Total Charge           Charge          ....    0
 Multiplicity           Mult            ....    1
 Number of Electrons    NEL             ....   54
 Basis Dimension        Dim             ....  143

MULLIKEN ATOMIC CHARGES
-----------------------
   0 N :   -0.175331
   1 C :   -0.126112
   2 C :    0.226909
   3 O :   -0.267195
   4 C :    0.117176
   5 C :   -0.149834
   6 C :    0.134057
   7 H :    0.088967
   8 H :    0.090120
   9 H :    0.010728
  10 H :    0.007448
  11 H :    0.014652
  12 H :    0.001883
  13 H :   -0.007201
  14 H :    0.013489
  15 H :    0.020244
Sum of atomic charges:   -0.0000000

LOEWDIN ATOMIC CHARGES
----------------------
   0 N :   -0.097856
   1 C :   -0.014905
   2 C :    0.068018
   3 O :   -0.077885
   4 C :    0.022324
   5 C :   -0.121396
   6 C :   -0.040864
   7 H :    0.053578
   8 H :    0.054021
   9 H :    0.008211
  10 H :    0.019998
  11 H :    0.017725
  12 H :    0.021649
  13 H :    0.027522
  14 H :    0.029730
  15 H :    0.030129

  Mayer bond orders larger than 0.1
B(  0-N ,  1-C ) :   1.0658 B(  0-N ,  7-H ) :   0.9603 B(  0-N ,  8-H ) :   0.9563
B(  1-C ,  2-C ) :   1.0295 B(  1-C ,  6-C ) :   1.0578 B(  1-C ,  9-H ) :   0.9061
B(  2-C ,  3-O ) :   0.9842 B(  2-C , 10-H ) :   0.9439 B(  2-C , 11-H ) :   0.9290
B(  3-O ,  4-C ) :   1.1374 B(  3-O ,  5-C ) :   0.1032 B(  4-C ,  5-C ) :   1.7932
B(  4-C , 12-H ) :   0.9705 B(  5-C ,  6-C ) :   1.0428 B(  5-C , 13-H ) :   0.9540
B(  6-C , 14-H ) :   0.9167 B(  6-C , 15-H ) :   0.9022

FINAL SINGLE POINT ENERGY      -325.246818968097

DIPOLE MOMENT
-------------
                                X             Y             Z
Electronic contribution:      2.73537       2.01169      -1.75105
Nuclear contribution   :     -2.92738      -2.25279       2.37049
                        -----------------------------------------
Total Dipole Moment    :     -0.19201      -0.24110       0.61944
                        -----------------------------------------
Magnitude (a.u.)       :      0.69189
Magnitude (Debye)      :      1.75864

                             ****ORCA TERMINATED NORMALLY****
TOTAL RUN TIME: 0 days 0 hours 0 minutes 7 seconds 579 msec
