                         Program Version 3.0.3 - RELEASE   -
|  1> ! RI PBE def2-SVP def2-SVP/J NBO PAL2
|  2> % maxcore 2000
|  3> % output
|  4>     # printlevel mini
|  5>     print[ P_Basis ] 0
|  6>     print[ P_SCFInfo ] 1
|  7>     print[ P_SCFIterInfo ] 1
|  8>     print[ P_OrbEn ] 0
|  9>     print[ P_Cartesian ] 0
| 10> end
| 11> *xyz 0 1
| 12>  N        1.0296800000     0.0500440000    -0.2559840000
| 13>  C        2.4467410000     0.0403540000     0.0192790000
| 14>  C        2.9978030000     1.1295190000     0.9419270000
| 15>  O        4.2107410000     0.6106920000     1.4646890000
| 16>  C        4.1940300000    -0.7546430000     1.3982400000
| 17>  C        5.2066200000    -1.4890620000     1.8407740000
| 18>  C        2.9122800000    -1.2054920000     0.7647460000
| 19>  H        0.7625800000     0.8695040000    -0.7864170000
| 20>  H        0.4936320000     0.0538980000     0.6044640000
| 21>  H        2.9743700000     0.0963660000    -0.9386660000
| 22>  H        2.2891110000     1.3248620000     1.7597290000
| 23>  H        3.2188710000     2.0725310000     0.4378150000
| 24>  H        6.0764720000    -1.0295800000     2.2909400000
| 25>  H        5.1698580000    -2.5657320000     1.7555080000
| 26>  H        2.1771330000    -1.4557460000     1.5401020000
| 27>  H        3.0346880000    -2.0801950000     0.1280230000
| 28> *
| 29>
| 30>                          ****END OF INPUT****
 Total Charge           Charge          ....    0
 Multiplicity           Mult            ....    1
 Number of Electrons    NEL             ....   54
 Basis Dimension        Dim             ....  143

MULLIKEN ATOMIC CHARGES
-----------------------
   0 N :   -0.147837
   1 C :   -0.168796
   2 C :    0.257413
   3 O :   -0.270176
   4 C :    0.023367
   5 C :   -0.102208
   6 C :    0.122410
   7 H :    0.094115
   8 H :    0.087903
   9 H :    0.023856
  10 H :   -0.007771
  11 H :    0.014003
  12 H :    0.011835
  13 H :    0.006048
  14 H :    0.022372
  15 H :    0.033466
Sum of atomic charges:   -0.0000000

LOEWDIN ATOMIC CHARGES
----------------------
   0 N :   -0.085380
   1 C :   -0.016452
   2 C :    0.054397
   3 O :   -0.081170
   4 C :    0.027811
   5 C :   -0.148322
   6 C :   -0.041855
   7 H :    0.055639
   8 H :    0.049915
   9 H :    0.029839
  10 H :    0.005393
  11 H :    0.018579
  12 H :    0.026808
  13 H :    0.026925
  14 H :    0.037423
  15 H :    0.040450

  Mayer bond orders larger than 0.1
B(  0-N ,  1-C ) :   1.1237 B(  0-N ,  7-H ) :   0.9659 B(  0-N ,  8-H ) :   0.9607
B(  1-C ,  2-C ) :   1.0215 B(  1-C ,  6-C ) :   1.0367 B(  1-C ,  9-H ) :   0.9057
B(  2-C ,  3-O ) :   0.9820 B(  2-C , 10-H ) :   0.9249 B(  2-C , 11-H ) :   0.9397
B(  3-O ,  4-C ) :   1.1116 B(  4-C ,  5-C ) :   1.9460 B(  4-C ,  6-C ) :   1.0149
B(  5-C , 12-H ) :   0.9212 B(  5-C , 13-H ) :   0.9287 B(  6-C , 14-H ) :   0.9010
B(  6-C , 15-H ) :   0.9217

FINAL SINGLE POINT ENERGY      -325.244879481002

DIPOLE MOMENT
-------------
                                X             Y             Z
Electronic contribution:      1.99471       1.26964       0.75704
Nuclear contribution   :     -2.80272      -0.86003      -0.97873
                        -----------------------------------------
Total Dipole Moment    :     -0.80801       0.40961      -0.22169
                        -----------------------------------------
Magnitude (a.u.)       :      0.93264
Magnitude (Debye)      :      2.37058

                             ****ORCA TERMINATED NORMALLY****
TOTAL RUN TIME: 0 days 0 hours 0 minutes 7 seconds 238 msec
