                         Program Version 3.0.3 - RELEASE   -
|  1> ! RI PBE def2-SVP def2-SVP/J NBO PAL2
|  2> % maxcore 2000
|  3> % output
|  4>     # printlevel mini
|  5>     print[ P_Basis ] 0
|  6>     print[ P_SCFInfo ] 1
|  7>     print[ P_SCFIterInfo ] 1
|  8>     print[ P_OrbEn ] 0
|  9>     print[ P_Cartesian ] 0
| 10> end
| 11> *xyz 0 1
| 12>  N        0.9517400000    -0.0816150000     0.3520650000
| 13>  C        2.3765770000    -0.0885900000     0.0456320000
| 14>  C        2.7183360000     1.1342450000    -0.7944770000
| 15>  O        4.0377340000     1.0620870000    -1.2786520000
| 16>  C        4.2138690000     0.0147990000    -2.1996380000
| 17>  C        3.5547870000    -1.2578520000    -1.7806850000
| 18>  C        2.7263280000    -1.3118310000    -0.7471220000
| 19>  H        0.7325020000     0.6671640000     0.9986400000
| 20>  H        0.6848830000    -0.9466070000     0.8065640000
| 21>  H        3.0067610000    -0.0668980000     0.9512260000
| 22>  H        2.6546040000     2.0518470000    -0.2041150000
| 23>  H        1.9925840000     1.2002870000    -1.6177530000
| 24>  H        5.2940940000    -0.1310470000    -2.2977260000
| 25>  H        3.8398990000     0.3121170000    -3.1948310000
| 26>  H        3.7773240000    -2.1438820000    -2.3677870000
| 27>  H        2.2673960000    -2.2530360000    -0.4546520000
| 28> *
| 29>
| 30>                          ****END OF INPUT****
 Total Charge           Charge          ....    0
 Multiplicity           Mult            ....    1
 Number of Electrons    NEL             ....   54
 Basis Dimension        Dim             ....  143

MULLIKEN ATOMIC CHARGES
-----------------------
   0 N :   -0.190809
   1 C :    0.026311
   2 C :    0.204581
   3 O :   -0.337866
   4 C :    0.257177
   5 C :   -0.133646
   6 C :   -0.024600
   7 H :    0.086449
   8 H :    0.085709
   9 H :    0.006635
  10 H :    0.002645
  11 H :   -0.004246
  12 H :    0.026132
  13 H :    0.008984
  14 H :    0.000278
  15 H :   -0.013735
Sum of atomic charges:   -0.0000000

LOEWDIN ATOMIC CHARGES
----------------------
   0 N :   -0.100955
   1 C :   -0.017828
   2 C :    0.059896
   3 O :   -0.142019
   4 C :    0.058031
   5 C :   -0.058054
   6 C :   -0.038797
   7 H :    0.052593
   8 H :    0.050436
   9 H :    0.010972
  10 H :    0.018039
  11 H :    0.007087
  12 H :    0.031608
  13 H :    0.017640
  14 H :    0.028520
  15 H :    0.022829

  Mayer bond orders larger than 0.1
B(  0-N ,  1-C ) :   1.0415 B(  0-N ,  7-H ) :   0.9610 B(  0-N ,  8-H ) :   0.9572
B(  1-C ,  2-C ) :   1.0602 B(  1-C ,  6-C ) :   0.9934 B(  1-C ,  9-H ) :   0.8681
B(  2-C ,  3-O ) :   1.0228 B(  2-C , 10-H ) :   0.9363 B(  2-C , 11-H ) :   0.9140
B(  3-O ,  4-C ) :   1.0389 B(  4-C ,  5-C ) :   1.0116 B(  4-C , 12-H ) :   0.9257
B(  4-C , 13-H ) :   0.9128 B(  5-C ,  6-C ) :   1.9464 B(  5-C , 14-H ) :   0.9507
B(  6-C , 15-H ) :   0.9601

FINAL SINGLE POINT ENERGY      -325.233733222868

DIPOLE MOMENT
-------------
                                X             Y             Z
Electronic contribution:      1.74565       0.54884      -0.29040
Nuclear contribution   :     -1.91214      -0.90655       0.63550
                        -----------------------------------------
Total Dipole Moment    :     -0.16648      -0.35771       0.34510
                        -----------------------------------------
Magnitude (a.u.)       :      0.52418
Magnitude (Debye)      :      1.33236

                             ****ORCA TERMINATED NORMALLY****
TOTAL RUN TIME: 0 days 0 hours 0 minutes 7 seconds 493 msec
