                         Program Version 3.0.3 - RELEASE   -
|  1> ! RI PBE def2-SVP def2-SVP/J NBO PAL2
|  2> % maxcore 2000
|  3> % output
|  4>     # printlevel mini
|  5>     print[ P_Basis ] 0
|  6>     print[ P_SCFInfo ] 1
|  7>     print[ P_SCFIterInfo ] 1
|  8>     print[ P_OrbEn ] 0
|  9>     print[ P_Cartesian ] 0
| 10> end
| 11> *xyz 0 1
| 12>  N        1.1869680000     0.1143320000     0.4462080000
| 13>  C        2.3533450000     0.0425930000    -0.0615630000
| 14>  C        3.1090090000    -1.2462900000    -0.3065830000
| 15>  O        4.0462840000    -1.1807870000    -1.3533610000
| 16>  C        4.9165680000    -0.0879200000    -1.1804380000
| 17>  C        4.1479020000     1.2082230000    -1.2762510000
| 18>  N        3.0546120000     1.1834000000    -0.3307450000
| 19>  H        0.8171710000    -0.8133470000     0.6323470000
| 20>  H        2.3989210000    -2.0330070000    -0.5623580000
| 21>  H        3.6099010000    -1.5257910000     0.6345400000
| 22>  H        5.6671350000    -0.1485330000    -1.9698040000
| 23>  H        5.4234860000    -0.1568980000    -0.2059040000
| 24>  H        3.7911630000     1.3378880000    -2.3076630000
| 25>  H        4.8095630000     2.0468260000    -1.0410740000
| 26>  H        2.4978530000     2.0199130000    -0.2379320000
| 27> *
| 28>
| 29>                          ****END OF INPUT****
 Total Charge           Charge          ....    0
 Multiplicity           Mult            ....    1
 Number of Electrons    NEL             ....   54
 Basis Dimension        Dim             ....  138

MULLIKEN ATOMIC CHARGES
-----------------------
   0 N :   -0.113849
   1 C :   -0.220135
   2 C :    0.261223
   3 O :   -0.335418
   4 C :    0.139248
   5 C :    0.120498
   6 N :   -0.141035
   7 H :    0.075656
   8 H :    0.021015
   9 H :    0.018411
  10 H :    0.030742
  11 H :   -0.000327
  12 H :    0.018122
  13 H :    0.016729
  14 H :    0.109121
Sum of atomic charges:   -0.0000000

LOEWDIN ATOMIC CHARGES
----------------------
   0 N :   -0.178645
   1 C :   -0.020384
   2 C :    0.039721
   3 O :   -0.140994
   4 C :    0.053856
   5 C :    0.009108
   6 N :   -0.012670
   7 H :    0.043499
   8 H :    0.031237
   9 H :    0.022169
  10 H :    0.029116
  11 H :    0.008281
  12 H :    0.016154
  13 H :    0.027749
  14 H :    0.071803

  Mayer bond orders larger than 0.1
B(  0-N ,  1-C ) :   1.9536 B(  0-N ,  7-H ) :   0.9259 B(  1-C ,  2-C ) :   0.9615
B(  1-C ,  6-N ) :   1.1953 B(  2-C ,  3-O ) :   1.0175 B(  2-C ,  8-H ) :   0.9281
B(  2-C ,  9-H ) :   0.9087 B(  3-O ,  4-C ) :   1.0156 B(  4-C ,  5-C ) :   1.0993
B(  4-C , 10-H ) :   0.9439 B(  4-C , 11-H ) :   0.9125 B(  5-C ,  6-N ) :   1.0088
B(  5-C , 12-H ) :   0.9198 B(  5-C , 13-H ) :   0.9294 B(  6-N , 14-H ) :   0.9178

FINAL SINGLE POINT ENERGY      -341.282027353111

DIPOLE MOMENT
-------------
                                X             Y             Z
Electronic contribution:     -1.86132      -0.60547       0.11554
Nuclear contribution   :      2.64127       0.74572      -0.32178
                        -----------------------------------------
Total Dipole Moment    :      0.77995       0.14024      -0.20624
                        -----------------------------------------
Magnitude (a.u.)       :      0.81886
Magnitude (Debye)      :      2.08137

                             ****ORCA TERMINATED NORMALLY****
TOTAL RUN TIME: 0 days 0 hours 0 minutes 7 seconds 165 msec
