                         Program Version 3.0.3 - RELEASE   -
|  1> ! RI PBE def2-SVP def2-SVP/J NBO PAL2
|  2> % maxcore 2000
|  3> % output
|  4>     # printlevel mini
|  5>     print[ P_Basis ] 0
|  6>     print[ P_SCFInfo ] 1
|  7>     print[ P_SCFIterInfo ] 1
|  8>     print[ P_OrbEn ] 0
|  9>     print[ P_Cartesian ] 0
| 10> end
| 11> *xyz 0 1
| 12>  N        0.8864360000    -0.0602380000    -0.0922710000
| 13>  C        2.1585200000    -0.0234640000    -0.0912660000
| 14>  C        2.9507600000     1.2711670000    -0.1042860000
| 15>  O        4.3667100000     1.1964450000    -0.1018070000
| 16>  C        4.9507420000    -0.0272890000    -0.0880400000
| 17>  C        4.2737810000    -1.1694810000    -0.0766270000
| 18>  N        2.8828710000    -1.1698640000    -0.0782470000
| 19>  H        0.4927680000     0.8764690000    -0.1027320000
| 20>  H        2.6449810000     1.8508320000     0.7733170000
| 21>  H        2.6470640000     1.8317750000    -0.9948990000
| 22>  H        6.0289250000     0.0255570000    -0.0873400000
| 23>  H        4.7708210000    -2.1267150000    -0.0658140000
| 24>  H        2.3617310000    -2.0301810000    -0.0695880000
| 25> *
| 26>
| 27>                          ****END OF INPUT****
 Total Charge           Charge          ....    0
 Multiplicity           Mult            ....    1
 Number of Electrons    NEL             ....   52
 Basis Dimension        Dim             ....  128

MULLIKEN ATOMIC CHARGES
-----------------------
   0 N :   -0.098608
   1 C :   -0.215683
   2 C :    0.229927
   3 O :   -0.274619
   4 C :    0.075423
   5 C :    0.019517
   6 N :   -0.038347
   7 H :    0.079166
   8 H :    0.042642
   9 H :    0.042262
  10 H :    0.018580
  11 H :    0.005370
  12 H :    0.114369
Sum of atomic charges:   -0.0000000

LOEWDIN ATOMIC CHARGES
----------------------
   0 N :   -0.168837
   1 C :   -0.010859
   2 C :    0.050736
   3 O :   -0.083361
   4 C :   -0.012795
   5 C :   -0.074506
   6 N :    0.043280
   7 H :    0.047419
   8 H :    0.032954
   9 H :    0.032881
  10 H :    0.028009
  11 H :    0.031629
  12 H :    0.083450

  Mayer bond orders larger than 0.1
B(  0-N ,  1-C ) :   1.9706 B(  0-N ,  7-H ) :   0.9286 B(  1-C ,  2-C ) :   0.9648
B(  1-C ,  6-N ) :   1.2012 B(  2-C ,  3-O ) :   0.9818 B(  2-C ,  8-H ) :   0.9307
B(  2-C ,  9-H ) :   0.9306 B(  3-O ,  4-C ) :   1.1061 B(  4-C ,  5-C ) :   1.7377
B(  4-C , 10-H ) :   0.9745 B(  5-C ,  6-N ) :   1.0611 B(  5-C , 11-H ) :   0.9551
B(  6-N , 12-H ) :   0.9150

FINAL SINGLE POINT ENERGY      -340.073094933323

DIPOLE MOMENT
-------------
                                X             Y             Z
Electronic contribution:      0.58229      -0.31398       0.00443
Nuclear contribution   :     -0.23438       0.24190      -0.00295
                        -----------------------------------------
Total Dipole Moment    :      0.34791      -0.07209       0.00148
                        -----------------------------------------
Magnitude (a.u.)       :      0.35530
Magnitude (Debye)      :      0.90311

                             ****ORCA TERMINATED NORMALLY****
TOTAL RUN TIME: 0 days 0 hours 0 minutes 5 seconds 820 msec
