                         Program Version 3.0.3 - RELEASE   -
|  1> ! RI PBE def2-SVP def2-SVP/J NBO PAL2
|  2> % maxcore 2000
|  3> % output
|  4>     # printlevel mini
|  5>     print[ P_Basis ] 0
|  6>     print[ P_SCFInfo ] 1
|  7>     print[ P_SCFIterInfo ] 1
|  8>     print[ P_OrbEn ] 0
|  9>     print[ P_Cartesian ] 0
| 10> end
| 11> *xyz 0 1
| 12>  N        1.0783800000    -0.0498440000    -0.1049890000
| 13>  C        2.4439240000     0.1059580000    -0.0162740000
| 14>  C        3.2567790000     1.1961780000    -0.0404630000
| 15>  C        4.5936360000     0.6793780000    -0.0015020000
| 16>  N        5.7451880000     1.4571680000    -0.0856850000
| 17>  C        4.4861470000    -0.6703920000     0.0507080000
| 18>  O        3.1512050000    -1.0266790000     0.0330910000
| 19>  H        0.5597090000     0.7622810000     0.1874490000
| 20>  H        0.7438700000    -0.8909910000     0.3409150000
| 21>  H        2.9571920000     2.2302400000    -0.1027590000
| 22>  H        5.6743070000     2.3235540000     0.4262970000
| 23>  H        6.5830100000     0.9638060000     0.1821570000
| 24>  H        5.1928430000    -1.4801480000     0.0866550000
| 25> *
| 26>
| 27>                          ****END OF INPUT****
 Total Charge           Charge          ....    0
 Multiplicity           Mult            ....    1
 Number of Electrons    NEL             ....   52
 Basis Dimension        Dim             ....  128

MULLIKEN ATOMIC CHARGES
-----------------------
   0 N :   -0.053890
   1 C :    0.100489
   2 C :   -0.141236
   3 C :    0.031711
   4 N :   -0.073139
   5 C :   -0.013399
   6 O :   -0.191660
   7 H :    0.115033
   8 H :    0.116409
   9 H :   -0.058123
  10 H :    0.105390
  11 H :    0.097702
  12 H :   -0.035287
Sum of atomic charges:   -0.0000000

LOEWDIN ATOMIC CHARGES
----------------------
   0 N :   -0.026599
   1 C :    0.032083
   2 C :   -0.166773
   3 C :   -0.039006
   4 N :   -0.037636
   5 C :   -0.073431
   6 O :    0.000869
   7 H :    0.076246
   8 H :    0.073486
   9 H :    0.019243
  10 H :    0.066445
  11 H :    0.065948
  12 H :    0.009124

  Mayer bond orders larger than 0.1
B(  0-N ,  1-C ) :   1.2056 B(  0-N ,  7-H ) :   0.9517 B(  0-N ,  8-H ) :   0.9405
B(  1-C ,  2-C ) :   1.4381 B(  1-C ,  6-O ) :   1.1993 B(  2-C ,  3-C ) :   1.1729
B(  2-C ,  9-H ) :   1.0268 B(  3-C ,  4-N ) :   1.1865 B(  3-C ,  5-C ) :   1.4944
B(  4-N , 10-H ) :   0.9515 B(  4-N , 11-H ) :   0.9568 B(  5-C ,  6-O ) :   1.0350
B(  5-C , 12-H ) :   1.0223

FINAL SINGLE POINT ENERGY      -340.087769750669

DIPOLE MOMENT
-------------
                                X             Y             Z
Electronic contribution:     -0.76404      -1.96001      -0.30301
Nuclear contribution   :      0.54330       2.33539       1.11439
                        -----------------------------------------
Total Dipole Moment    :     -0.22075       0.37537       0.81139
                        -----------------------------------------
Magnitude (a.u.)       :      0.92086
Magnitude (Debye)      :      2.34064

                             ****ORCA TERMINATED NORMALLY****
TOTAL RUN TIME: 0 days 0 hours 0 minutes 6 seconds 318 msec
