                         Program Version 3.0.3 - RELEASE   -
|  1> ! RI PBE def2-SVP def2-SVP/J NBO PAL2
|  2> % maxcore 2000
|  3> % output
|  4>     # printlevel mini
|  5>     print[ P_Basis ] 0
|  6>     print[ P_SCFInfo ] 1
|  7>     print[ P_SCFIterInfo ] 1
|  8>     print[ P_OrbEn ] 0
|  9>     print[ P_Cartesian ] 0
| 10> end
| 11> *xyz 0 1
| 12>  N        0.9067350000    -0.1076610000     0.1468480000
| 13>  C        2.3351720000     0.0003370000     0.0928650000
| 14>  C        2.7726820000    -0.0109560000    -1.3666560000
| 15>  O        4.1585850000     0.1090310000    -1.5561060000
| 16>  C        3.1083990000     1.0683500000     0.9179460000
| 17>  N        4.1111120000     0.0299800000     1.2061980000
| 18>  C        3.1213110000    -1.0262810000     0.9330250000
| 19>  H        0.4588700000     0.6043070000    -0.4169410000
| 20>  H        0.5612740000    -0.0205730000     1.0938030000
| 21>  H        2.2748350000     0.8239520000    -1.8822940000
| 22>  H        2.4042110000    -0.9416180000    -1.8179770000
| 23>  H        4.5846430000     0.0507430000    -0.6829410000
| 24>  H        2.5260360000     1.3819490000     1.7949800000
| 25>  H        3.4928470000     1.9493740000     0.3960120000
| 26>  H        4.5308210000     0.0379880000     2.1259690000
| 27>  H        2.5459020000    -1.3386930000     1.8147210000
| 28>  H        3.5109560000    -1.9111300000     0.4221380000
| 29> *
| 30>
| 31>                          ****END OF INPUT****
 Total Charge           Charge          ....    0
 Multiplicity           Mult            ....    1
 Number of Electrons    NEL             ....   56
 Basis Dimension        Dim             ....  148

MULLIKEN ATOMIC CHARGES
-----------------------
   0 N :   -0.107442
   1 C :   -0.447289
   2 C :    0.284793
   3 O :   -0.295156
   4 C :    0.217737
   5 N :   -0.289802
   6 C :    0.217456
   7 H :    0.093067
   8 H :    0.080192
   9 H :   -0.009689
  10 H :   -0.000418
  11 H :    0.143672
  12 H :   -0.019186
  13 H :    0.017436
  14 H :    0.102135
  15 H :   -0.008195
  16 H :    0.020690
Sum of atomic charges:   -0.0000000

LOEWDIN ATOMIC CHARGES
----------------------
   0 N :   -0.074493
   1 C :   -0.049600
   2 C :    0.063767
   3 O :   -0.131350
   4 C :    0.011947
   5 N :   -0.092049
   6 C :    0.030575
   7 H :    0.055277
   8 H :    0.047849
   9 H :    0.005491
  10 H :    0.007663
  11 H :    0.039634
  12 H :    0.001416
  13 H :    0.010351
  14 H :    0.052506
  15 H :    0.007107
  16 H :    0.013910

  Mayer bond orders larger than 0.1
B(  0-N ,  1-C ) :   1.1184 B(  0-N ,  7-H ) :   0.9582 B(  0-N ,  8-H ) :   0.9461
B(  1-C ,  2-C ) :   0.9930 B(  1-C ,  4-C ) :   0.9541 B(  1-C ,  6-C ) :   0.9759
B(  2-C ,  3-O ) :   1.1073 B(  2-C ,  9-H ) :   0.9263 B(  2-C , 10-H ) :   0.9258
B(  3-O , 11-H ) :   0.9338 B(  4-C ,  5-N ) :   1.0004 B(  4-C , 12-H ) :   0.9108
B(  4-C , 13-H ) :   0.9360 B(  5-N ,  6-C ) :   0.9969 B(  5-N , 11-H ) :   0.1348
B(  5-N , 14-H ) :   0.9354 B(  6-C , 15-H ) :   0.9179 B(  6-C , 16-H ) :   0.9357

FINAL SINGLE POINT ENERGY      -342.448277807379

DIPOLE MOMENT
-------------
                                X             Y             Z
Electronic contribution:      1.74900      -0.12377      -1.03375
Nuclear contribution   :     -2.32427       0.44382       2.30045
                        -----------------------------------------
Total Dipole Moment    :     -0.57527       0.32006       1.26670
                        -----------------------------------------
Magnitude (a.u.)       :      1.42755
Magnitude (Debye)      :      3.62855

                             ****ORCA TERMINATED NORMALLY****
TOTAL RUN TIME: 0 days 0 hours 0 minutes 7 seconds 829 msec
