                         Program Version 3.0.3 - RELEASE   -
|  1> ! RI PBE def2-SVP def2-SVP/J NBO PAL2
|  2> % maxcore 2000
|  3> % output
|  4>     # printlevel mini
|  5>     print[ P_Basis ] 0
|  6>     print[ P_SCFInfo ] 1
|  7>     print[ P_SCFIterInfo ] 1
|  8>     print[ P_OrbEn ] 0
|  9>     print[ P_Cartesian ] 0
| 10> end
| 11> *xyz 0 1
| 12>  N        0.9088070000     0.1096350000    -0.0419660000
| 13>  C        2.2770770000     0.0776750000    -0.0357120000
| 14>  C        3.1515950000     1.1175050000    -0.0321480000
| 15>  O        4.4494820000     0.6228890000    -0.0261960000
| 16>  C        4.3495620000    -0.7043050000    -0.0261750000
| 17>  O        5.4894480000    -1.3991860000    -0.0208570000
| 18>  C        3.0633200000    -1.1249090000    -0.0317600000
| 19>  H        0.4104220000     0.9762700000    -0.0436290000
| 20>  H        0.3827460000    -0.7396470000    -0.0429880000
| 21>  H        3.0525660000     2.1875270000    -0.0329810000
| 22>  H        6.2234850000    -0.7756200000    -0.0177100000
| 23>  H        2.7182910000    -2.1454260000    -0.0329570000
| 24> *
| 25>
| 26>                          ****END OF INPUT****
 Total Charge           Charge          ....    0
 Multiplicity           Mult            ....    1
 Number of Electrons    NEL             ....   52
 Basis Dimension        Dim             ....  123

MULLIKEN ATOMIC CHARGES
-----------------------
   0 N :   -0.073175
   1 C :    0.075465
   2 C :   -0.033236
   3 O :   -0.201260
   4 C :    0.215999
   5 O :   -0.143425
   6 C :   -0.150695
   7 H :    0.103698
   8 H :    0.105435
   9 H :   -0.032392
  10 H :    0.176166
  11 H :   -0.042580
Sum of atomic charges:   -0.0000000

LOEWDIN ATOMIC CHARGES
----------------------
   0 N :   -0.016266
   1 C :   -0.024365
   2 C :   -0.085487
   3 O :   -0.009789
   4 C :    0.045050
   5 O :   -0.015941
   6 C :   -0.157618
   7 H :    0.068343
   8 H :    0.068924
   9 H :    0.008862
  10 H :    0.093042
  11 H :    0.025244

  Mayer bond orders larger than 0.1
B(  0-N ,  1-C ) :   1.2299 B(  0-N ,  7-H ) :   0.9573 B(  0-N ,  8-H ) :   0.9543
B(  1-C ,  2-C ) :   1.4718 B(  1-C ,  6-C ) :   1.1536 B(  2-C ,  3-O ) :   1.0108
B(  2-C ,  9-H ) :   1.0269 B(  3-O ,  4-C ) :   1.1837 B(  4-C ,  5-O ) :   1.2337
B(  4-C ,  6-C ) :   1.4625 B(  5-O , 10-H ) :   0.9534 B(  6-C , 11-H ) :   1.0264

FINAL SINGLE POINT ENERGY      -359.924763597838

DIPOLE MOMENT
-------------
                                X             Y             Z
Electronic contribution:      3.59207      -0.21453       0.01565
Nuclear contribution   :     -4.01330       0.42916      -0.01648
                        -----------------------------------------
Total Dipole Moment    :     -0.42123       0.21464      -0.00082
                        -----------------------------------------
Magnitude (a.u.)       :      0.47276
Magnitude (Debye)      :      1.20166

                             ****ORCA TERMINATED NORMALLY****
TOTAL RUN TIME: 0 days 0 hours 0 minutes 5 seconds 965 msec
