                         Program Version 3.0.3 - RELEASE   -
|  1> ! RI PBE def2-SVP def2-SVP/J NBO PAL2
|  2> % maxcore 2000
|  3> % output
|  4>     # printlevel mini
|  5>     print[ P_Basis ] 0
|  6>     print[ P_SCFInfo ] 1
|  7>     print[ P_SCFIterInfo ] 1
|  8>     print[ P_OrbEn ] 0
|  9>     print[ P_Cartesian ] 0
| 10> end
| 11> *xyz 0 1
| 12>  N        1.0124700000    -0.0083090000     0.1526710000
| 13>  C        2.4566980000    -0.1011370000     0.0420500000
| 14>  C        2.9802480000    -1.4744180000    -0.3780110000
| 15>  O        2.6042190000    -1.7632560000    -1.7108930000
| 16>  C        3.0777520000    -0.7786190000    -2.5797360000
| 17>  O        2.5609480000     0.4851820000    -2.2945540000
| 18>  C        2.9424620000     0.9007820000    -0.9943160000
| 19>  H        0.6559040000    -0.7157860000     0.7839320000
| 20>  H        0.5979370000    -0.1883350000    -0.7549460000
| 21>  H        2.8989950000     0.1606380000     1.0105080000
| 22>  H        2.5603440000    -2.2668780000     0.2452880000
| 23>  H        4.0781300000    -1.5064160000    -0.2852240000
| 24>  H        2.7493210000    -1.0462520000    -3.5834440000
| 25>  H        4.1823930000    -0.7450130000    -2.5309090000
| 26>  H        2.4889810000     1.8779760000    -0.8283690000
| 27>  H        4.0373990000     0.9966510000    -0.9433580000
| 28> *
| 29>
| 30>                          ****END OF INPUT****
 Total Charge           Charge          ....    0
 Multiplicity           Mult            ....    1
 Number of Electrons    NEL             ....   56
 Basis Dimension        Dim             ....  143

MULLIKEN ATOMIC CHARGES
-----------------------
   0 N :   -0.157324
   1 C :   -0.097230
   2 C :    0.197771
   3 O :   -0.331382
   4 C :    0.326274
   5 O :   -0.339727
   6 C :    0.209188
   7 H :    0.083418
   8 H :    0.088217
   9 H :    0.005285
  10 H :    0.010405
  11 H :   -0.010346
  12 H :    0.021815
  13 H :   -0.024841
  14 H :    0.020730
  15 H :   -0.002254
Sum of atomic charges:   -0.0000000

LOEWDIN ATOMIC CHARGES
----------------------
   0 N :   -0.091385
   1 C :   -0.038724
   2 C :    0.045705
   3 O :   -0.142040
   4 C :    0.119896
   5 O :   -0.141559
   6 C :    0.063193
   7 H :    0.050708
   8 H :    0.047940
   9 H :    0.026097
  10 H :    0.018033
  11 H :    0.004053
  12 H :    0.018790
  13 H :   -0.013071
  14 H :    0.025114
  15 H :    0.007248

  Mayer bond orders larger than 0.1
B(  0-N ,  1-C ) :   1.1004 B(  0-N ,  7-H ) :   0.9688 B(  0-N ,  8-H ) :   0.9601
B(  1-C ,  2-C ) :   1.0133 B(  1-C ,  6-C ) :   1.0482 B(  1-C ,  9-H ) :   0.9023
B(  2-C ,  3-O ) :   1.0082 B(  2-C , 10-H ) :   0.9397 B(  2-C , 11-H ) :   0.9105
B(  3-O ,  4-C ) :   1.0586 B(  4-C ,  5-O ) :   1.0615 B(  4-C , 12-H ) :   0.9530
B(  4-C , 13-H ) :   0.9114 B(  5-O ,  6-C ) :   0.9971 B(  6-C , 14-H ) :   0.9373
B(  6-C , 15-H ) :   0.9251

FINAL SINGLE POINT ENERGY      -362.312609531475

DIPOLE MOMENT
-------------
                                X             Y             Z
Electronic contribution:     -1.10922      -0.45755      -2.62843
Nuclear contribution   :      1.54736       0.17057       3.00605
                        -----------------------------------------
Total Dipole Moment    :      0.43814      -0.28698       0.37762
                        -----------------------------------------
Magnitude (a.u.)       :      0.64570
Magnitude (Debye)      :      1.64123

                             ****ORCA TERMINATED NORMALLY****
TOTAL RUN TIME: 0 days 0 hours 0 minutes 7 seconds 375 msec
