                         Program Version 3.0.3 - RELEASE   -
|  1> ! RI PBE def2-SVP def2-SVP/J NBO PAL2
|  2> % maxcore 2000
|  3> % output
|  4>     # printlevel mini
|  5>     print[ P_Basis ] 0
|  6>     print[ P_SCFInfo ] 1
|  7>     print[ P_SCFIterInfo ] 1
|  8>     print[ P_OrbEn ] 0
|  9>     print[ P_Cartesian ] 0
| 10> end
| 11> *xyz 0 1
| 12>  N        0.9756770000    -0.0123080000     0.1424350000
| 13>  C        2.4085200000     0.0906570000     0.0642180000
| 14>  C        2.8000600000     0.0925010000    -1.4064290000
| 15>  O        4.1817120000     0.0067490000    -1.6405960000
| 16>  C        3.1595060000     1.1344850000     0.9242550000
| 17>  O        3.9580600000     0.1206670000     1.5332200000
| 18>  C        3.1844010000    -0.9217350000     0.9190690000
| 19>  H        0.5206600000     0.7187280000    -0.3916880000
| 20>  H        0.6510640000     0.0575210000     1.0986080000
| 21>  H        2.3687070000     0.9868100000    -1.8852970000
| 22>  H        2.3518770000    -0.7831860000    -1.8809780000
| 23>  H        4.6231650000     0.7477090000    -1.2165660000
| 24>  H        2.5162340000     1.6503300000     1.6489920000
| 25>  H        3.7685000000     1.8879990000     0.4051470000
| 26>  H        2.5581070000    -1.4497480000     1.6474700000
| 27>  H        3.8130600000    -1.6322990000     0.3772310000
| 28> *
| 29>
| 30>                          ****END OF INPUT****
 Total Charge           Charge          ....    0
 Multiplicity           Mult            ....    1
 Number of Electrons    NEL             ....   56
 Basis Dimension        Dim             ....  143

MULLIKEN ATOMIC CHARGES
-----------------------
   0 N :   -0.109225
   1 C :   -0.450142
   2 C :    0.247312
   3 O :   -0.270364
   4 C :    0.292098
   5 O :   -0.357206
   6 C :    0.322525
   7 H :    0.089923
   8 H :    0.085754
   9 H :   -0.004476
  10 H :    0.020477
  11 H :    0.156404
  12 H :   -0.019165
  13 H :   -0.011171
  14 H :   -0.008576
  15 H :    0.015833
Sum of atomic charges:   -0.0000000

LOEWDIN ATOMIC CHARGES
----------------------
   0 N :   -0.075675
   1 C :   -0.066952
   2 C :    0.057506
   3 O :   -0.104977
   4 C :    0.061444
   5 O :   -0.180159
   6 C :    0.089409
   7 H :    0.052924
   8 H :    0.051321
   9 H :    0.002379
  10 H :    0.025455
  11 H :    0.067779
  12 H :    0.002764
  13 H :   -0.003671
  14 H :    0.006850
  15 H :    0.013603

  Mayer bond orders larger than 0.1
B(  0-N ,  1-C ) :   1.1018 B(  0-N ,  7-H ) :   0.9570 B(  0-N ,  8-H ) :   0.9472
B(  1-C ,  2-C ) :   0.9674 B(  1-C ,  4-C ) :   1.0063 B(  1-C ,  6-C ) :   1.0229
B(  2-C ,  3-O ) :   1.0808 B(  2-C ,  9-H ) :   0.9326 B(  2-C , 10-H ) :   0.9288
B(  3-O , 11-H ) :   0.9804 B(  4-C ,  5-O ) :   1.0545 B(  4-C , 12-H ) :   0.9040
B(  4-C , 13-H ) :   0.9186 B(  5-O ,  6-C ) :   1.0297 B(  6-C , 14-H ) :   0.9137
B(  6-C , 15-H ) :   0.9271

FINAL SINGLE POINT ENERGY      -362.281066612444

DIPOLE MOMENT
-------------
                                X             Y             Z
Electronic contribution:      2.55879      -0.55933       0.71189
Nuclear contribution   :     -3.29559       1.32526      -0.68703
                        -----------------------------------------
Total Dipole Moment    :     -0.73680       0.76592       0.02486
                        -----------------------------------------
Magnitude (a.u.)       :      1.06308
Magnitude (Debye)      :      2.70213

                             ****ORCA TERMINATED NORMALLY****
TOTAL RUN TIME: 0 days 0 hours 0 minutes 7 seconds 355 msec
