                         Program Version 3.0.3 - RELEASE   -
|  1> ! RI PBE def2-SVP def2-SVP/J NBO PAL2
|  2> % maxcore 2000
|  3> % output
|  4>     # printlevel mini
|  5>     print[ P_Basis ] 0
|  6>     print[ P_SCFInfo ] 1
|  7>     print[ P_SCFIterInfo ] 1
|  8>     print[ P_OrbEn ] 0
|  9>     print[ P_Cartesian ] 0
| 10> end
| 11> *xyz 0 1
| 12>  N        0.9967780000     0.0943870000    -0.1257170000
| 13>  C        2.4290890000     0.0971320000     0.0427450000
| 14>  C        3.0294410000     1.1818450000     0.9460790000
| 15>  O        4.2697890000     0.6579500000     1.4149430000
| 16>  C        4.2731150000    -0.6960100000     1.3305530000
| 17>  O        5.1920820000    -1.3524300000     1.7101080000
| 18>  C        2.9740910000    -1.1545180000     0.7095720000
| 19>  H        0.6797270000     0.9151370000    -0.6256690000
| 20>  H        0.5211230000     0.0737430000     0.7690170000
| 21>  H        2.8785650000     0.1879410000    -0.9515880000
| 22>  H        2.3721320000     1.3745180000     1.8031440000
| 23>  H        3.2299130000     2.1249570000     0.4357260000
| 24>  H        2.3112180000    -1.4815160000     1.5195860000
| 25>  H        3.1326580000    -2.0038460000     0.0483920000
| 26> *
| 27>
| 28>                          ****END OF INPUT****
 Total Charge           Charge          ....    0
 Multiplicity           Mult            ....    1
 Number of Electrons    NEL             ....   54
 Basis Dimension        Dim             ....  133

MULLIKEN ATOMIC CHARGES
-----------------------
   0 N :   -0.145269
   1 C :   -0.161707
   2 C :    0.238595
   3 O :   -0.246615
   4 C :    0.081243
   5 O :   -0.138338
   6 C :    0.031107
   7 H :    0.095349
   8 H :    0.089061
   9 H :    0.029380
  10 H :    0.005840
  11 H :    0.025130
  12 H :    0.043035
  13 H :    0.053190
Sum of atomic charges:   -0.0000000

LOEWDIN ATOMIC CHARGES
----------------------
   0 N :   -0.082290
   1 C :   -0.018397
   2 C :    0.055369
   3 O :   -0.068913
   4 C :    0.038171
   5 O :   -0.123871
   6 C :   -0.069688
   7 H :    0.056351
   8 H :    0.050495
   9 H :    0.031900
  10 H :    0.011770
  11 H :    0.022425
  12 H :    0.048946
  13 H :    0.047731

  Mayer bond orders larger than 0.1
B(  0-N ,  1-C ) :   1.1274 B(  0-N ,  7-H ) :   0.9653 B(  0-N ,  8-H ) :   0.9600
B(  1-C ,  2-C ) :   1.0180 B(  1-C ,  6-C ) :   1.0480 B(  1-C ,  9-H ) :   0.9057
B(  2-C ,  3-O ) :   0.9615 B(  2-C , 10-H ) :   0.9283 B(  2-C , 11-H ) :   0.9423
B(  3-O ,  4-C ) :   1.1259 B(  4-C ,  5-O ) :   2.2092 B(  4-C ,  6-C ) :   0.9665
B(  6-C , 12-H ) :   0.9044 B(  6-C , 13-H ) :   0.9256

FINAL SINGLE POINT ENERGY      -361.153640821080

DIPOLE MOMENT
-------------
                                X             Y             Z
Electronic contribution:      5.95126      -1.28769       2.42163
Nuclear contribution   :     -7.42266       2.11668      -2.86429
                        -----------------------------------------
Total Dipole Moment    :     -1.47141       0.82900      -0.44266
                        -----------------------------------------
Magnitude (a.u.)       :      1.74592
Magnitude (Debye)      :      4.43777

                             ****ORCA TERMINATED NORMALLY****
TOTAL RUN TIME: 0 days 0 hours 0 minutes 6 seconds 80 msec
