                         Program Version 3.0.3 - RELEASE   -
|  1> ! RI PBE def2-SVP def2-SVP/J NBO PAL2
|  2> % maxcore 2000
|  3> % output
|  4>     # printlevel mini
|  5>     print[ P_Basis ] 0
|  6>     print[ P_SCFInfo ] 1
|  7>     print[ P_SCFIterInfo ] 1
|  8>     print[ P_OrbEn ] 0
|  9>     print[ P_Cartesian ] 0
| 10> end
| 11> *xyz 0 1
| 12>  N        0.9736520000     0.1170740000     0.4631550000
| 13>  C        2.3520900000     0.0329210000     0.0184730000
| 14>  C        2.6718450000     1.2077630000    -0.8821770000
| 15>  O        4.0191670000     1.1794460000    -1.3218490000
| 16>  N        4.4450250000     0.0080930000    -1.9017670000
| 17>  C        3.7710330000    -1.0488860000    -1.6922710000
| 18>  C        2.5690500000    -1.2114030000    -0.8189910000
| 19>  H        0.8470480000     0.8964050000     1.0981040000
| 20>  H        0.7095920000    -0.7205000000     0.9681230000
| 21>  H        3.0837690000     0.0364310000     0.8412600000
| 22>  H        2.5652470000     2.1637070000    -0.3651050000
| 23>  H        1.9948250000     1.1961900000    -1.7466160000
| 24>  H        4.1769830000    -1.9223130000    -2.1958470000
| 25>  H        2.7035720000    -2.1018440000    -0.1955860000
| 26>  H        1.6797030000    -1.3920920000    -1.4349950000
| 27> *
| 28>
| 29>                          ****END OF INPUT****
 Total Charge           Charge          ....    0
 Multiplicity           Mult            ....    1
 Number of Electrons    NEL             ....   54
 Basis Dimension        Dim             ....  138

MULLIKEN ATOMIC CHARGES
-----------------------
   0 N :   -0.168818
   1 C :   -0.112442
   2 C :    0.211007
   3 O :   -0.264270
   4 N :    0.040946
   5 C :   -0.117747
   6 C :    0.094818
   7 H :    0.091049
   8 H :    0.091997
   9 H :    0.013064
  10 H :    0.017312
  11 H :    0.018086
  12 H :    0.020108
  13 H :    0.029543
  14 H :    0.035348
Sum of atomic charges:   -0.0000000

LOEWDIN ATOMIC CHARGES
----------------------
   0 N :   -0.096544
   1 C :   -0.018477
   2 C :    0.047906
   3 O :   -0.082994
   4 N :    0.000055
   5 C :   -0.059412
   6 C :   -0.061235
   7 H :    0.055262
   8 H :    0.054729
   9 H :    0.009744
  10 H :    0.024821
  11 H :    0.016919
  12 H :    0.029068
  13 H :    0.038560
  14 H :    0.041598

  Mayer bond orders larger than 0.1
B(  0-N ,  1-C ) :   1.0800 B(  0-N ,  7-H ) :   0.9606 B(  0-N ,  8-H ) :   0.9555
B(  1-C ,  2-C ) :   1.0338 B(  1-C ,  6-C ) :   1.0454 B(  1-C ,  9-H ) :   0.9076
B(  2-C ,  3-O ) :   0.9763 B(  2-C , 10-H ) :   0.9403 B(  2-C , 11-H ) :   0.9267
B(  3-O ,  4-N ) :   0.9750 B(  3-O ,  5-C ) :   0.1170 B(  4-N ,  5-C ) :   1.9477
B(  5-C ,  6-C ) :   1.0005 B(  5-C , 12-H ) :   0.9560 B(  6-C , 13-H ) :   0.9142
B(  6-C , 14-H ) :   0.8951

FINAL SINGLE POINT ENERGY      -341.230389577369

DIPOLE MOMENT
-------------
                                X             Y             Z
Electronic contribution:      4.45587       1.65404      -2.54369
Nuclear contribution   :     -5.40801      -2.20217       3.51479
                        -----------------------------------------
Total Dipole Moment    :     -0.95215      -0.54813       0.97110
                        -----------------------------------------
Magnitude (a.u.)       :      1.46631
Magnitude (Debye)      :      3.72707

                             ****ORCA TERMINATED NORMALLY****
TOTAL RUN TIME: 0 days 0 hours 0 minutes 7 seconds 163 msec
