                         Program Version 3.0.3 - RELEASE   -
|  1> ! RI PBE def2-SVP def2-SVP/J NBO PAL2
|  2> % maxcore 2000
|  3> % output
|  4>     # printlevel mini
|  5>     print[ P_Basis ] 0
|  6>     print[ P_SCFInfo ] 1
|  7>     print[ P_SCFIterInfo ] 1
|  8>     print[ P_OrbEn ] 0
|  9>     print[ P_Cartesian ] 0
| 10> end
| 11> *xyz 0 1
| 12>  N        1.3944890000     0.0672380000     0.7411540000
| 13>  C        2.2899250000    -0.0935910000    -0.1299620000
| 14>  N        2.8463930000    -1.2501340000    -0.6687540000
| 15>  C        3.9977590000    -0.9289880000    -1.4474080000
| 16>  C        5.0890030000    -0.1274480000    -0.7749410000
| 17>  C        3.9667430000     0.5572170000    -1.4871160000
| 18>  O        2.8752000000     0.9831310000    -0.7180610000
| 19>  H        1.0227740000    -0.8233260000     1.0531600000
| 20>  H        2.8694870000    -2.0542940000    -0.0632930000
| 21>  H        4.1993660000    -1.5427150000    -2.3160310000
| 22>  H        6.0575490000    -0.1048920000    -1.2595470000
| 23>  H        5.1039430000    -0.0886760000     0.3080720000
| 24>  H        4.1215690000     1.1543980000    -2.3743620000
| 25> *
| 26>
| 27>                          ****END OF INPUT****
 Total Charge           Charge          ....    0
 Multiplicity           Mult            ....    1
 Number of Electrons    NEL             ....   52
 Basis Dimension        Dim             ....  128

MULLIKEN ATOMIC CHARGES
-----------------------
   0 N :   -0.086543
   1 C :    0.011891
   2 N :   -0.141506
   3 C :   -0.031871
   4 C :    0.008707
   5 C :    0.085831
   6 O :   -0.213495
   7 H :    0.084159
   8 H :    0.126279
   9 H :    0.029858
  10 H :    0.040375
  11 H :    0.049095
  12 H :    0.037219
Sum of atomic charges:   -0.0000000

LOEWDIN ATOMIC CHARGES
----------------------
   0 N :   -0.179558
   1 C :    0.029517
   2 N :   -0.032308
   3 C :   -0.006575
   4 C :   -0.067375
   5 C :    0.057049
   6 O :   -0.051478
   7 H :    0.050051
   8 H :    0.075517
   9 H :    0.024001
  10 H :    0.036999
  11 H :    0.037705
  12 H :    0.026455

  Mayer bond orders larger than 0.1
B(  0-N ,  1-C ) :   1.9900 B(  0-N ,  7-H ) :   0.9222 B(  1-C ,  2-N ) :   1.0757
B(  1-C ,  6-O ) :   1.0892 B(  2-N ,  3-C ) :   1.0675 B(  2-N ,  8-H ) :   0.9384
B(  3-C ,  4-C ) :   0.9615 B(  3-C ,  5-C ) :   0.9431 B(  3-C ,  9-H ) :   0.9482
B(  4-C ,  5-C ) :   0.9718 B(  4-C , 10-H ) :   0.9344 B(  4-C , 11-H ) :   0.9140
B(  5-C ,  6-O ) :   1.0360 B(  5-C , 12-H ) :   0.9570

FINAL SINGLE POINT ENERGY      -340.065355374299

DIPOLE MOMENT
-------------
                                X             Y             Z
Electronic contribution:     -2.84263       1.35373       0.29578
Nuclear contribution   :      3.93921      -2.57778      -0.84246
                        -----------------------------------------
Total Dipole Moment    :      1.09658      -1.22405      -0.54668
                        -----------------------------------------
Magnitude (a.u.)       :      1.73195
Magnitude (Debye)      :      4.40226

                             ****ORCA TERMINATED NORMALLY****
TOTAL RUN TIME: 0 days 0 hours 0 minutes 6 seconds 484 msec
