                         Program Version 3.0.3 - RELEASE   -
|  1> ! RI PBE def2-SVP def2-SVP/J NBO PAL2
|  2> % maxcore 2000
|  3> % output
|  4>     # printlevel mini
|  5>     print[ P_Basis ] 0
|  6>     print[ P_SCFInfo ] 1
|  7>     print[ P_SCFIterInfo ] 1
|  8>     print[ P_OrbEn ] 0
|  9>     print[ P_Cartesian ] 0
| 10> end
| 11> *xyz 0 1
| 12>  N        1.1930000000     0.0970030000     0.6195570000
| 13>  C        2.2689520000    -0.1997100000     0.0136680000
| 14>  N        2.7322260000    -1.4030330000    -0.4594210000
| 15>  C        4.0628970000    -1.3680430000    -1.0282800000
| 16>  C        4.4232930000     0.0947040000    -0.9550310000
| 17>  O        3.5522840000     0.9123900000    -1.7095310000
| 18>  C        3.3252600000     0.8052360000    -0.3043720000
| 19>  H        0.6057660000    -0.7216820000     0.7722100000
| 20>  H        2.1058080000    -2.1694890000    -0.6297040000
| 21>  H        4.0797640000    -1.7263580000    -2.0632200000
| 22>  H        4.7721130000    -1.9652050000    -0.4429860000
| 23>  H        5.4595130000     0.4096890000    -0.9006020000
| 24>  H        3.4133150000     1.7127880000     0.2789130000
| 25> *
| 26>
| 27>                          ****END OF INPUT****
 Total Charge           Charge          ....    0
 Multiplicity           Mult            ....    1
 Number of Electrons    NEL             ....   52
 Basis Dimension        Dim             ....  128

MULLIKEN ATOMIC CHARGES
-----------------------
   0 N :   -0.080711
   1 C :   -0.035360
   2 N :   -0.213480
   3 C :    0.248671
   4 C :   -0.007912
   5 O :   -0.264635
   6 C :    0.076701
   7 H :    0.075552
   8 H :    0.107447
   9 H :    0.025714
  10 H :    0.023920
  11 H :    0.027074
  12 H :    0.017019
Sum of atomic charges:   -0.0000000

LOEWDIN ATOMIC CHARGES
----------------------
   0 N :   -0.166190
   1 C :   -0.011938
   2 N :   -0.021752
   3 C :    0.026832
   4 C :    0.040781
   5 O :   -0.132903
   6 C :    0.056729
   7 H :    0.041648
   8 H :    0.068074
   9 H :    0.028615
  10 H :    0.023372
  11 H :    0.020653
  12 H :    0.026081

  Mayer bond orders larger than 0.1
B(  0-N ,  1-C ) :   2.0139 B(  0-N ,  2-N ) :   0.1072 B(  0-N ,  7-H ) :   0.9228
B(  1-C ,  2-N ) :   1.1436 B(  1-C ,  6-C ) :   0.9124 B(  2-N ,  3-C ) :   1.0083
B(  2-N ,  8-H ) :   0.9339 B(  3-C ,  4-C ) :   1.0046 B(  3-C ,  9-H ) :   0.9107
B(  3-C , 10-H ) :   0.9256 B(  4-C ,  5-O ) :   0.9889 B(  4-C ,  6-C ) :   1.0271
B(  4-C , 11-H ) :   0.9474 B(  5-O ,  6-C ) :   0.9412 B(  6-C , 12-H ) :   0.9744

FINAL SINGLE POINT ENERGY      -340.060587166523

DIPOLE MOMENT
-------------
                                X             Y             Z
Electronic contribution:     -1.09132       2.00840      -0.44322
Nuclear contribution   :      1.86634      -3.24366       0.36983
                        -----------------------------------------
Total Dipole Moment    :      0.77503      -1.23526      -0.07339
                        -----------------------------------------
Magnitude (a.u.)       :      1.46011
Magnitude (Debye)      :      3.71130

                             ****ORCA TERMINATED NORMALLY****
TOTAL RUN TIME: 0 days 0 hours 0 minutes 6 seconds 243 msec
