                         Program Version 3.0.3 - RELEASE   -
|  1> ! RI PBE def2-SVP def2-SVP/J NBO PAL2
|  2> % maxcore 2000
|  3> % output
|  4>     # printlevel mini
|  5>     print[ P_Basis ] 0
|  6>     print[ P_SCFInfo ] 1
|  7>     print[ P_SCFIterInfo ] 1
|  8>     print[ P_OrbEn ] 0
|  9>     print[ P_Cartesian ] 0
| 10> end
| 11> *xyz 0 1
| 12>  N        1.1869520000    -0.0746810000     0.2948720000
| 13>  C        2.4111600000    -0.1026850000    -0.0024290000
| 14>  N        3.2530500000    -1.1744920000    -0.2641850000
| 15>  C        4.5219640000    -0.7210230000    -0.5460440000
| 16>  C        4.6246390000     0.6215200000    -0.4977540000
| 17>  C        3.3102390000     1.1463930000    -0.1516300000
| 18>  O        2.9371930000     2.2797830000     0.0001830000
| 19>  H        0.7763190000    -1.0075300000     0.3432920000
| 20>  H        2.9808010000    -2.1401040000    -0.2509030000
| 21>  H        5.2983410000    -1.4395750000    -0.7727240000
| 22>  H        5.5098630000     1.2079840000    -0.6796880000
| 23> *
| 24>
| 25>                          ****END OF INPUT****
 Total Charge           Charge          ....    0
 Multiplicity           Mult            ....    1
 Number of Electrons    NEL             ....   50
 Basis Dimension        Dim             ....  118

MULLIKEN ATOMIC CHARGES
-----------------------
   0 N :    0.009720
   1 C :   -0.128069
   2 N :   -0.109058
   3 C :    0.117181
   4 C :   -0.097184
   5 C :    0.094680
   6 O :   -0.106132
   7 H :    0.090292
   8 H :    0.112880
   9 H :    0.019314
  10 H :   -0.003624
Sum of atomic charges:   -0.0000000

LOEWDIN ATOMIC CHARGES
----------------------
   0 N :   -0.071437
   1 C :   -0.012665
   2 N :    0.021338
   3 C :    0.061734
   4 C :   -0.124115
   5 C :    0.022986
   6 O :   -0.092597
   7 H :    0.052681
   8 H :    0.077269
   9 H :    0.030437
  10 H :    0.034370

  Mayer bond orders larger than 0.1
B(  0-N ,  1-C ) :   2.0908 B(  0-N ,  7-H ) :   0.9171 B(  1-C ,  2-N ) :   1.0808
B(  1-C ,  5-C ) :   0.8074 B(  2-N ,  3-C ) :   1.1380 B(  2-N ,  4-C ) :   0.1067
B(  2-N ,  8-H ) :   0.9363 B(  3-C ,  4-C ) :   1.5683 B(  3-C ,  9-H ) :   0.9743
B(  4-C ,  5-C ) :   1.1031 B(  4-C , 10-H ) :   1.0112 B(  5-C ,  6-O ) :   2.1848

FINAL SINGLE POINT ENERGY      -338.889040741703

DIPOLE MOMENT
-------------
                                X             Y             Z
Electronic contribution:     -1.07515       1.95956       0.36299
Nuclear contribution   :      1.83970      -4.20172      -0.67312
                        -----------------------------------------
Total Dipole Moment    :      0.76455      -2.24216      -0.31013
                        -----------------------------------------
Magnitude (a.u.)       :      2.38914
Magnitude (Debye)      :      6.07272

                             ****ORCA TERMINATED NORMALLY****
TOTAL RUN TIME: 0 days 0 hours 0 minutes 6 seconds 99 msec
