                         Program Version 3.0.3 - RELEASE   -
|  1> ! RI PBE def2-SVP def2-SVP/J NBO PAL2
|  2> % maxcore 2000
|  3> % output
|  4>     # printlevel mini
|  5>     print[ P_Basis ] 0
|  6>     print[ P_SCFInfo ] 1
|  7>     print[ P_SCFIterInfo ] 1
|  8>     print[ P_OrbEn ] 0
|  9>     print[ P_Cartesian ] 0
| 10> end
| 11> *xyz 0 1
| 12>  N        1.1921180000     0.0249880000     0.4727430000
| 13>  C        2.3853790000     0.1135000000     0.0500020000
| 14>  N        3.1458040000     1.1833040000    -0.3175850000
| 15>  C        4.4970950000     0.9018370000    -0.7615930000
| 16>  C        4.6165920000    -0.6175440000    -0.6527780000
| 17>  C        3.2752360000    -1.1027700000    -0.1405330000
| 18>  O        2.9671680000    -2.2363460000     0.0756120000
| 19>  H        0.7411870000     0.9367030000     0.5406410000
| 20>  H        2.7887470000     2.1218370000    -0.2858270000
| 21>  H        5.2299400000     1.4121810000    -0.1290720000
| 22>  H        4.6504720000     1.2475050000    -1.7885650000
| 23>  H        5.3962650000    -0.9346700000     0.0420740000
| 24>  H        4.8252960000    -1.0983140000    -1.6101190000
| 25> *
| 26>
| 27>                          ****END OF INPUT****
 Total Charge           Charge          ....    0
 Multiplicity           Mult            ....    1
 Number of Electrons    NEL             ....   52
 Basis Dimension        Dim             ....  128

MULLIKEN ATOMIC CHARGES
-----------------------
   0 N :   -0.050585
   1 C :   -0.094267
   2 N :   -0.207609
   3 C :    0.169427
   4 C :   -0.025011
   5 C :   -0.045238
   6 O :   -0.091647
   7 H :    0.076557
   8 H :    0.108272
   9 H :    0.025788
  10 H :    0.021361
  11 H :    0.056777
  12 H :    0.056175
Sum of atomic charges:   -0.0000000

LOEWDIN ATOMIC CHARGES
----------------------
   0 N :   -0.140053
   1 C :   -0.048056
   2 N :   -0.010816
   3 C :    0.035210
   4 C :   -0.072318
   5 C :    0.047875
   6 O :   -0.075099
   7 H :    0.043222
   8 H :    0.068116
   9 H :    0.022479
  10 H :    0.021364
  11 H :    0.054010
  12 H :    0.054067

  Mayer bond orders larger than 0.1
B(  0-N ,  1-C ) :   2.0248 B(  0-N ,  2-N ) :   0.1350 B(  0-N ,  7-H ) :   0.9196
B(  1-C ,  2-N ) :   1.1462 B(  1-C ,  5-C ) :   0.8414 B(  2-N ,  3-C ) :   1.0050
B(  2-N ,  8-H ) :   0.9368 B(  3-C ,  4-C ) :   1.0969 B(  3-C ,  9-H ) :   0.9329
B(  3-C , 10-H ) :   0.9331 B(  4-C ,  5-C ) :   1.0311 B(  4-C , 11-H ) :   0.9042
B(  4-C , 12-H ) :   0.9034 B(  5-C ,  6-O ) :   2.2827

FINAL SINGLE POINT ENERGY      -340.096363571983

DIPOLE MOMENT
-------------
                                X             Y             Z
Electronic contribution:     -3.19749      -3.02105       1.40679
Nuclear contribution   :      4.39834       4.79174      -1.99455
                        -----------------------------------------
Total Dipole Moment    :      1.20085       1.77069      -0.58777
                        -----------------------------------------
Magnitude (a.u.)       :      2.21875
Magnitude (Debye)      :      5.63963

                             ****ORCA TERMINATED NORMALLY****
TOTAL RUN TIME: 0 days 0 hours 0 minutes 6 seconds 385 msec
