                         Program Version 3.0.3 - RELEASE   -
|  1> ! RI PBE def2-SVP def2-SVP/J NBO PAL2
|  2> % maxcore 2000
|  3> % output
|  4>     # printlevel mini
|  5>     print[ P_Basis ] 0
|  6>     print[ P_SCFInfo ] 1
|  7>     print[ P_SCFIterInfo ] 1
|  8>     print[ P_OrbEn ] 0
|  9>     print[ P_Cartesian ] 0
| 10> end
| 11> *xyz 0 1
| 12>  N        1.0302540000    -0.0119540000    -0.0500890000
| 13>  C        2.2778400000    -0.0728560000     0.0960320000
| 14>  O        3.0208880000     1.1312210000     0.1369970000
| 15>  C        4.3408310000     1.1023360000     0.2906930000
| 16>  C        5.0231930000    -0.0447860000     0.4121440000
| 17>  C        4.2370060000    -1.2402020000     0.3653010000
| 18>  N        2.9599250000    -1.2613740000     0.2184920000
| 19>  H        0.7208240000     0.9535370000    -0.1214420000
| 20>  H        4.7763790000     2.0950090000     0.3042540000
| 21>  H        6.0953940000    -0.0572480000     0.5366420000
| 22>  H        4.7305770000    -2.2067830000     0.4579880000
| 23> *
| 24>
| 25>                          ****END OF INPUT****
 Total Charge           Charge          ....    0
 Multiplicity           Mult            ....    1
 Number of Electrons    NEL             ....   50
 Basis Dimension        Dim             ....  118

MULLIKEN ATOMIC CHARGES
-----------------------
   0 N :   -0.048033
   1 C :   -0.032070
   2 O :   -0.185906
   3 C :    0.187599
   4 C :   -0.084913
   5 C :    0.054968
   6 N :   -0.063468
   7 H :    0.098852
   8 H :    0.031916
   9 H :    0.020166
  10 H :    0.020889
Sum of atomic charges:   -0.0000000

LOEWDIN ATOMIC CHARGES
----------------------
   0 N :   -0.117625
   1 C :    0.024965
   2 O :   -0.021562
   3 C :    0.097884
   4 C :   -0.124870
   5 C :    0.049364
   6 N :   -0.065984
   7 H :    0.055036
   8 H :    0.032815
   9 H :    0.042570
  10 H :    0.027407

  Mayer bond orders larger than 0.1
B(  0-N ,  1-C ) :   1.9832 B(  0-N ,  7-H ) :   0.9173 B(  1-C ,  2-O ) :   0.9613
B(  1-C ,  6-N ) :   1.2307 B(  2-O ,  3-C ) :   1.2029 B(  3-C ,  4-C ) :   1.6194
B(  3-C ,  8-H ) :   0.9741 B(  4-C ,  5-C ) :   1.1393 B(  4-C ,  9-H ) :   0.9660
B(  5-C ,  6-N ) :   1.7784 B(  5-C , 10-H ) :   0.9673

FINAL SINGLE POINT ENERGY      -338.876704929362

DIPOLE MOMENT
-------------
                                X             Y             Z
Electronic contribution:     -1.60472       0.10751      -0.18585
Nuclear contribution   :      3.13562       0.82498       0.33214
                        -----------------------------------------
Total Dipole Moment    :      1.53090       0.93248       0.14629
                        -----------------------------------------
Magnitude (a.u.)       :      1.79850
Magnitude (Debye)      :      4.57142

                             ****ORCA TERMINATED NORMALLY****
TOTAL RUN TIME: 0 days 0 hours 0 minutes 6 seconds 398 msec
