                         Program Version 3.0.3 - RELEASE   -
|  1> ! RI PBE def2-SVP def2-SVP/J NBO PAL2
|  2> % maxcore 2000
|  3> % output
|  4>     # printlevel mini
|  5>     print[ P_Basis ] 0
|  6>     print[ P_SCFInfo ] 1
|  7>     print[ P_SCFIterInfo ] 1
|  8>     print[ P_OrbEn ] 0
|  9>     print[ P_Cartesian ] 0
| 10> end
| 11> *xyz 0 1
| 12>  N        1.1705760000     0.0578970000     0.5865280000
| 13>  C        2.2974080000    -0.0720060000     0.0192660000
| 14>  N        2.9415330000    -1.2561280000    -0.2681880000
| 15>  C        4.0877180000    -1.3919110000    -1.1409540000
| 16>  C        4.9153780000    -0.1297450000    -1.0607790000
| 17>  C        3.9857010000     1.0426660000    -1.2494010000
| 18>  O        2.9712600000     1.0633670000    -0.2577590000
| 19>  H        0.7710470000    -0.8452840000     0.8206260000
| 20>  H        2.3514000000    -2.0651800000    -0.1816850000
| 21>  H        3.7814960000    -1.5606280000    -2.1842520000
| 22>  H        4.6681300000    -2.2634200000    -0.8262130000
| 23>  H        5.6881360000    -0.1310520000    -1.8328330000
| 24>  H        5.4051800000    -0.0554740000    -0.0859700000
| 25>  H        3.5223830000     1.0100960000    -2.2448160000
| 26>  H        4.5026550000     1.9973120000    -1.1492700000
| 27> *
| 28>
| 29>                          ****END OF INPUT****
 Total Charge           Charge          ....    0
 Multiplicity           Mult            ....    1
 Number of Electrons    NEL             ....   54
 Basis Dimension        Dim             ....  138

MULLIKEN ATOMIC CHARGES
-----------------------
   0 N :   -0.108342
   1 C :   -0.000665
   2 N :   -0.191153
   3 C :    0.120730
   4 C :   -0.076588
   5 C :    0.187103
   6 O :   -0.250499
   7 H :    0.069495
   8 H :    0.111253
   9 H :    0.013000
  10 H :    0.019827
  11 H :    0.033759
  12 H :    0.038414
  13 H :    0.006675
  14 H :    0.026990
Sum of atomic charges:   -0.0000000

LOEWDIN ATOMIC CHARGES
----------------------
   0 N :   -0.196349
   1 C :    0.021432
   2 N :   -0.047925
   3 C :    0.023864
   4 C :   -0.062313
   5 C :    0.072416
   6 O :   -0.072789
   7 H :    0.039589
   8 H :    0.070960
   9 H :    0.011781
  10 H :    0.024799
  11 H :    0.038391
  12 H :    0.034417
  13 H :    0.013543
  14 H :    0.028185

  Mayer bond orders larger than 0.1
B(  0-N ,  1-C ) :   1.9468 B(  0-N ,  7-H ) :   0.9259 B(  1-C ,  2-N ) :   1.1199
B(  1-C ,  6-O ) :   1.1360 B(  2-N ,  3-C ) :   1.0000 B(  2-N ,  8-H ) :   0.9295
B(  3-C ,  4-C ) :   1.0878 B(  3-C ,  9-H ) :   0.9331 B(  3-C , 10-H ) :   0.9368
B(  4-C ,  5-C ) :   1.0919 B(  4-C , 11-H ) :   0.9293 B(  4-C , 12-H ) :   0.9256
B(  5-C ,  6-O ) :   0.9720 B(  5-C , 13-H ) :   0.9315 B(  5-C , 14-H ) :   0.9466

FINAL SINGLE POINT ENERGY      -341.291611552168

DIPOLE MOMENT
-------------
                                X             Y             Z
Electronic contribution:     -3.66351       1.66769       2.65301
Nuclear contribution   :      4.81338      -2.88523      -3.55332
                        -----------------------------------------
Total Dipole Moment    :      1.14987      -1.21754      -0.90031
                        -----------------------------------------
Magnitude (a.u.)       :      1.90136
Magnitude (Debye)      :      4.83288

                             ****ORCA TERMINATED NORMALLY****
TOTAL RUN TIME: 0 days 0 hours 0 minutes 7 seconds 163 msec
