                         Program Version 3.0.3 - RELEASE   -
|  1> ! RI PBE def2-SVP def2-SVP/J NBO PAL2
|  2> % maxcore 2000
|  3> % output
|  4>     # printlevel mini
|  5>     print[ P_Basis ] 0
|  6>     print[ P_SCFInfo ] 1
|  7>     print[ P_SCFIterInfo ] 1
|  8>     print[ P_OrbEn ] 0
|  9>     print[ P_Cartesian ] 0
| 10> end
| 11> *xyz 0 1
| 12>  N        0.9911880000     0.0181210000    -0.0681060000
| 13>  C        2.2544290000    -0.0672650000    -0.0655010000
| 14>  N        2.9928470000    -1.2340840000    -0.0735480000
| 15>  C        4.3742110000    -1.2581720000    -0.0702930000
| 16>  C        5.0776190000    -0.1345190000    -0.0588560000
| 17>  C        4.3724050000     1.1721550000    -0.0493700000
| 18>  O        2.9475890000     1.0799180000    -0.0538870000
| 19>  H        0.5599800000    -0.9002880000    -0.0771130000
| 20>  H        2.4791820000    -2.0948120000    -0.0822930000
| 21>  H        4.8237010000    -2.2428000000    -0.0776480000
| 22>  H        6.1582710000    -0.1469690000    -0.0562630000
| 23>  H        4.6458420000     1.7739410000    -0.9243340000
| 24>  H        4.6412560000     1.7586820000     0.8373020000
| 25> *
| 26>
| 27>                          ****END OF INPUT****
 Total Charge           Charge          ....    0
 Multiplicity           Mult            ....    1
 Number of Electrons    NEL             ....   52
 Basis Dimension        Dim             ....  128

MULLIKEN ATOMIC CHARGES
-----------------------
   0 N :   -0.093739
   1 C :    0.018206
   2 N :   -0.101353
   3 C :    0.087523
   4 C :   -0.199577
   5 C :    0.259450
   6 O :   -0.252284
   7 H :    0.074680
   8 H :    0.116882
   9 H :    0.003375
  10 H :    0.014441
  11 H :    0.036347
  12 H :    0.036049
Sum of atomic charges:   -0.0000000

LOEWDIN ATOMIC CHARGES
----------------------
   0 N :   -0.177164
   1 C :    0.036228
   2 N :    0.002881
   3 C :   -0.000004
   4 C :   -0.125396
   5 C :    0.084727
   6 O :   -0.066967
   7 H :    0.043009
   8 H :    0.081475
   9 H :    0.028527
  10 H :    0.035922
  11 H :    0.028414
  12 H :    0.028348

  Mayer bond orders larger than 0.1
B(  0-N ,  1-C ) :   1.9496 B(  0-N ,  7-H ) :   0.9272 B(  1-C ,  2-N ) :   1.0810
B(  1-C ,  6-O ) :   1.1618 B(  2-N ,  3-C ) :   1.1006 B(  2-N ,  8-H ) :   0.9234
B(  3-C ,  4-C ) :   1.8087 B(  3-C ,  9-H ) :   0.9595 B(  4-C ,  5-C ) :   1.0497
B(  4-C , 10-H ) :   0.9580 B(  5-C ,  6-O ) :   0.9578 B(  5-C , 11-H ) :   0.9325
B(  5-C , 12-H ) :   0.9325

FINAL SINGLE POINT ENERGY      -340.078355502764

DIPOLE MOMENT
-------------
                                X             Y             Z
Electronic contribution:     -2.45967       0.19918      -0.00474
Nuclear contribution   :      3.51198      -1.43574      -0.00331
                        -----------------------------------------
Total Dipole Moment    :      1.05231      -1.23656      -0.00805
                        -----------------------------------------
Magnitude (a.u.)       :      1.62373
Magnitude (Debye)      :      4.12721

                             ****ORCA TERMINATED NORMALLY****
TOTAL RUN TIME: 0 days 0 hours 0 minutes 6 seconds 368 msec
