                         Program Version 3.0.3 - RELEASE   -
|  1> ! RI PBE def2-SVP def2-SVP/J NBO PAL2
|  2> % maxcore 2000
|  3> % output
|  4>     # printlevel mini
|  5>     print[ P_Basis ] 0
|  6>     print[ P_SCFInfo ] 1
|  7>     print[ P_SCFIterInfo ] 1
|  8>     print[ P_OrbEn ] 0
|  9>     print[ P_Cartesian ] 0
| 10> end
| 11> *xyz 0 1
| 12>  N        1.1074270000    -0.0867570000    -0.3012470000
| 13>  C        2.3458380000    -0.1062640000    -0.0349780000
| 14>  N        3.1985040000    -1.1737410000     0.2030210000
| 15>  C        4.4937130000    -0.7489780000     0.4584180000
| 16>  O        5.4356490000    -1.4587790000     0.6969680000
| 17>  C        4.4372880000     0.7370910000     0.3692410000
| 18>  C        3.1886670000     1.1004660000     0.0829650000
| 19>  H        0.7065080000    -1.0228680000    -0.3385680000
| 20>  H        2.9367190000    -2.1443900000     0.1972780000
| 21>  H        5.3088930000     1.3552550000     0.5238590000
| 22>  H        2.7792040000     2.0901660000    -0.0560660000
| 23> *
| 24>
| 25>                          ****END OF INPUT****
 Total Charge           Charge          ....    0
 Multiplicity           Mult            ....    1
 Number of Electrons    NEL             ....   50
 Basis Dimension        Dim             ....  118

MULLIKEN ATOMIC CHARGES
-----------------------
   0 N :   -0.023931
   1 C :   -0.073666
   2 N :   -0.116604
   3 C :    0.126203
   4 O :   -0.143432
   5 C :   -0.036603
   6 C :    0.049893
   7 H :    0.093540
   8 H :    0.113759
   9 H :    0.010028
  10 H :    0.000813
Sum of atomic charges:   -0.0000000

LOEWDIN ATOMIC CHARGES
----------------------
   0 N :   -0.102533
   1 C :    0.010683
   2 N :    0.007960
   3 C :    0.034587
   4 O :   -0.134786
   5 C :   -0.032399
   6 C :    0.003988
   7 H :    0.053201
   8 H :    0.080921
   9 H :    0.038820
  10 H :    0.039559

  Mayer bond orders larger than 0.1
B(  0-N ,  1-C ) :   2.0164 B(  0-N ,  7-H ) :   0.9236 B(  1-C ,  2-N ) :   1.0871
B(  1-C ,  6-C ) :   0.9846 B(  2-N ,  3-C ) :   1.0653 B(  2-N ,  8-H ) :   0.9272
B(  3-C ,  4-O ) :   2.1551 B(  3-C ,  5-C ) :   0.9552 B(  5-C ,  6-C ) :   1.6776
B(  5-C ,  9-H ) :   1.0080 B(  6-C , 10-H ) :   1.0121

FINAL SINGLE POINT ENERGY      -338.915035773131

DIPOLE MOMENT
-------------
                                X             Y             Z
Electronic contribution:      1.51109      -1.44887       0.39917
Nuclear contribution   :     -1.97845       1.36951      -0.49481
                        -----------------------------------------
Total Dipole Moment    :     -0.46736      -0.07936      -0.09565
                        -----------------------------------------
Magnitude (a.u.)       :      0.48360
Magnitude (Debye)      :      1.22922

                             ****ORCA TERMINATED NORMALLY****
TOTAL RUN TIME: 0 days 0 hours 0 minutes 5 seconds 907 msec
