                         Program Version 3.0.3 - RELEASE   -
|  1> ! RI PBE def2-SVP def2-SVP/J NBO PAL2
|  2> % maxcore 2000
|  3> % output
|  4>     # printlevel mini
|  5>     print[ P_Basis ] 0
|  6>     print[ P_SCFInfo ] 1
|  7>     print[ P_SCFIterInfo ] 1
|  8>     print[ P_OrbEn ] 0
|  9>     print[ P_Cartesian ] 0
| 10> end
| 11> *xyz 0 1
| 12>  N        0.9800070000     0.0881070000     0.0372630000
| 13>  C        2.3773530000     0.0375090000     0.0302230000
| 14>  C        3.2361450000     1.1038490000     0.1357800000
| 15>  O        2.8719070000     2.4003290000     0.2661000000
| 16>  C        4.5619210000     0.6186520000     0.0852170000
| 17>  C        4.4741870000    -0.7460190000    -0.0512600000
| 18>  N        3.1610690000    -1.0944360000    -0.0842750000
| 19>  H        0.5391510000    -0.2045720000    -0.8242900000
| 20>  H        0.5414190000    -0.3695640000     0.8249590000
| 21>  H        1.9065410000     2.4113150000     0.2684950000
| 22>  H        5.4662650000     1.2025250000     0.1423530000
| 23>  H        5.2532370000    -1.4871980000    -0.1265970000
| 24>  H        2.8079990000    -2.0285970000    -0.1770590000
| 25> *
| 26>
| 27>                          ****END OF INPUT****
 Total Charge           Charge          ....    0
 Multiplicity           Mult            ....    1
 Number of Electrons    NEL             ....   52
 Basis Dimension        Dim             ....  128

MULLIKEN ATOMIC CHARGES
-----------------------
   0 N :   -0.113985
   1 C :   -0.127792
   2 C :    0.077620
   3 O :   -0.162930
   4 C :   -0.077294
   5 C :    0.043537
   6 N :   -0.055200
   7 H :    0.109036
   8 H :    0.109457
   9 H :    0.152138
  10 H :   -0.035457
  11 H :   -0.012969
  12 H :    0.093839
Sum of atomic charges:   -0.0000000

LOEWDIN ATOMIC CHARGES
----------------------
   0 N :   -0.065943
   1 C :   -0.106434
   2 C :   -0.020516
   3 O :   -0.044836
   4 C :   -0.110678
   5 C :   -0.036970
   6 N :    0.076178
   7 H :    0.060251
   8 H :    0.060406
   9 H :    0.076136
  10 H :    0.024390
  11 H :    0.015801
  12 H :    0.072213

  Mayer bond orders larger than 0.1
B(  0-N ,  1-C ) :   1.2330 B(  0-N ,  7-H ) :   0.9570 B(  0-N ,  8-H ) :   0.9571
B(  1-C ,  2-C ) :   1.4160 B(  1-C ,  5-C ) :   0.1258 B(  1-C ,  6-N ) :   1.1280
B(  2-C ,  3-O ) :   1.2611 B(  2-C ,  4-C ) :   1.3122 B(  3-O ,  9-H ) :   0.9534
B(  4-C ,  5-C ) :   1.4296 B(  4-C , 10-H ) :   1.0204 B(  5-C ,  6-N ) :   1.2305
B(  5-C , 11-H ) :   0.9864 B(  6-N , 12-H ) :   0.9404

FINAL SINGLE POINT ENERGY      -340.096374279699

DIPOLE MOMENT
-------------
                                X             Y             Z
Electronic contribution:      0.58954       1.20405       0.11964
Nuclear contribution   :     -1.53479      -2.49214      -0.24728
                        -----------------------------------------
Total Dipole Moment    :     -0.94525      -1.28809      -0.12764
                        -----------------------------------------
Magnitude (a.u.)       :      1.60280
Magnitude (Debye)      :      4.07399

                             ****ORCA TERMINATED NORMALLY****
TOTAL RUN TIME: 0 days 0 hours 0 minutes 6 seconds 9 msec
