                         Program Version 3.0.3 - RELEASE   -
|  1> ! RI PBE def2-SVP def2-SVP/J NBO PAL2
|  2> % maxcore 2000
|  3> % output
|  4>     # printlevel mini
|  5>     print[ P_Basis ] 0
|  6>     print[ P_SCFInfo ] 1
|  7>     print[ P_SCFIterInfo ] 1
|  8>     print[ P_OrbEn ] 0
|  9>     print[ P_Cartesian ] 0
| 10> end
| 11> *xyz 0 1
| 12>  N        1.2259820000     0.1596010000     0.5621740000
| 13>  C        2.3591230000    -0.0069190000     0.0192250000
| 14>  N        2.8545990000    -1.1513910000    -0.6171100000
| 15>  O        4.2754070000    -1.1159940000    -0.6452970000
| 16>  C        4.6146630000     0.2392800000    -0.5370540000
| 17>  C        3.9899590000     1.1910360000    -1.4870040000
| 18>  C        3.4141310000     1.0177100000    -0.0934270000
| 19>  H        0.6803330000    -0.7009620000     0.5765560000
| 20>  H        2.5987960000    -2.0359900000    -0.1988290000
| 21>  H        5.6164300000     0.3727110000    -0.1520950000
| 22>  H        3.4256760000     0.8003630000    -2.3243460000
| 23>  H        4.5196720000     2.1174110000    -1.6680850000
| 24>  H        3.4193390000     1.8261340000     0.6223020000
| 25> *
| 26>
| 27>                          ****END OF INPUT****
 Total Charge           Charge          ....    0
 Multiplicity           Mult            ....    1
 Number of Electrons    NEL             ....   52
 Basis Dimension        Dim             ....  128

MULLIKEN ATOMIC CHARGES
-----------------------
   0 N :   -0.064802
   1 C :   -0.024260
   2 N :   -0.015707
   3 O :   -0.270034
   4 C :    0.158152
   5 C :    0.027685
   6 C :   -0.171812
   7 H :    0.078921
   8 H :    0.127155
   9 H :    0.031239
  10 H :    0.052275
  11 H :    0.042373
  12 H :    0.028815
Sum of atomic charges:    0.0000000

LOEWDIN ATOMIC CHARGES
----------------------
   0 N :   -0.153020
   1 C :   -0.007286
   2 N :    0.048080
   3 O :   -0.099569
   4 C :    0.049949
   5 C :   -0.040646
   6 C :   -0.053421
   7 H :    0.045301
   8 H :    0.069018
   9 H :    0.027382
  10 H :    0.037285
  11 H :    0.037220
  12 H :    0.039707

  Mayer bond orders larger than 0.1
B(  0-N ,  1-C ) :   2.0448 B(  0-N ,  7-H ) :   0.9203 B(  1-C ,  2-N ) :   1.0483
B(  1-C ,  6-C ) :   0.9923 B(  2-N ,  3-O ) :   0.9253 B(  2-N ,  8-H ) :   0.9350
B(  3-O ,  4-C ) :   1.0125 B(  4-C ,  5-C ) :   0.9967 B(  4-C ,  6-C ) :   0.8923
B(  4-C ,  9-H ) :   0.9521 B(  5-C ,  6-C ) :   0.9320 B(  5-C , 10-H ) :   0.9222
B(  5-C , 11-H ) :   0.9397 B(  6-C , 12-H ) :   0.9562

FINAL SINGLE POINT ENERGY      -340.005904674936

DIPOLE MOMENT
-------------
                                X             Y             Z
Electronic contribution:     -0.21387      -2.48118       0.67964
Nuclear contribution   :      0.72473       2.21219      -0.68511
                        -----------------------------------------
Total Dipole Moment    :      0.51087      -0.26899      -0.00548
                        -----------------------------------------
Magnitude (a.u.)       :      0.57738
Magnitude (Debye)      :      1.46758

                             ****ORCA TERMINATED NORMALLY****
TOTAL RUN TIME: 0 days 0 hours 0 minutes 6 seconds 429 msec
