                         Program Version 3.0.3 - RELEASE   -
|  1> ! RI PBE def2-SVP def2-SVP/J NBO PAL2
|  2> % maxcore 2000
|  3> % output
|  4>     # printlevel mini
|  5>     print[ P_Basis ] 0
|  6>     print[ P_SCFInfo ] 1
|  7>     print[ P_SCFIterInfo ] 1
|  8>     print[ P_OrbEn ] 0
|  9>     print[ P_Cartesian ] 0
| 10> end
| 11> *xyz 0 1
| 12>  N        0.9227830000     0.0821220000    -0.0868860000
| 13>  C        2.1944940000     0.1117580000    -0.0363010000
| 14>  N        2.9839890000     1.2480230000    -0.2328150000
| 15>  O        4.2044000000     1.2272240000     0.4843020000
| 16>  C        5.0104750000     0.2018590000    -0.0465700000
| 17>  C        4.2938890000    -1.1061830000     0.0075410000
| 18>  C        2.9652840000    -1.1289360000     0.0671340000
| 19>  H        0.5242500000     1.0163120000    -0.1827360000
| 20>  H        2.5317180000     2.1136540000     0.0299450000
| 21>  H        5.9039840000     0.1906100000     0.5819070000
| 22>  H        5.3155890000     0.4408060000    -1.0775880000
| 23>  H        4.8776720000    -2.0207290000    -0.0017840000
| 24>  H        2.3879730000    -2.0417200000     0.1358400000
| 25> *
| 26>
| 27>                          ****END OF INPUT****
 Total Charge           Charge          ....    0
 Multiplicity           Mult            ....    1
 Number of Electrons    NEL             ....   52
 Basis Dimension        Dim             ....  128

MULLIKEN ATOMIC CHARGES
-----------------------
   0 N :   -0.075485
   1 C :   -0.123869
   2 N :    0.001802
   3 O :   -0.304627
   4 C :    0.270382
   5 C :   -0.101251
   6 C :    0.080514
   7 H :    0.077125
   8 H :    0.116158
   9 H :    0.034994
  10 H :    0.021720
  11 H :    0.011351
  12 H :   -0.008813
Sum of atomic charges:   -0.0000000

LOEWDIN ATOMIC CHARGES
----------------------
   0 N :   -0.134525
   1 C :   -0.016279
   2 N :    0.043742
   3 O :   -0.114557
   4 C :    0.052883
   5 C :   -0.031733
   6 C :   -0.034062
   7 H :    0.042807
   8 H :    0.062921
   9 H :    0.036453
  10 H :    0.019982
  11 H :    0.032340
  12 H :    0.040027

  Mayer bond orders larger than 0.1
B(  0-N ,  1-C ) :   2.0001 B(  0-N ,  7-H ) :   0.9265 B(  1-C ,  2-N ) :   1.0850
B(  1-C ,  6-C ) :   1.0380 B(  2-N ,  3-O ) :   0.9108 B(  2-N ,  8-H ) :   0.9281
B(  3-O ,  4-C ) :   1.0028 B(  4-C ,  5-C ) :   1.0245 B(  4-C ,  9-H ) :   0.9273
B(  4-C , 10-H ) :   0.9064 B(  5-C ,  6-C ) :   1.8133 B(  5-C , 11-H ) :   0.9508
B(  6-C , 12-H ) :   0.9730

FINAL SINGLE POINT ENERGY      -340.019375652204

DIPOLE MOMENT
-------------
                                X             Y             Z
Electronic contribution:     -1.27965       1.40780       0.59781
Nuclear contribution   :      1.99613      -1.11485      -0.63015
                        -----------------------------------------
Total Dipole Moment    :      0.71648       0.29295      -0.03234
                        -----------------------------------------
Magnitude (a.u.)       :      0.77474
Magnitude (Debye)      :      1.96922

                             ****ORCA TERMINATED NORMALLY****
TOTAL RUN TIME: 0 days 0 hours 0 minutes 6 seconds 362 msec
