                         Program Version 3.0.3 - RELEASE   -
|  1> ! RI PBE def2-SVP def2-SVP/J NBO PAL2
|  2> % maxcore 2000
|  3> % output
|  4>     # printlevel mini
|  5>     print[ P_Basis ] 0
|  6>     print[ P_SCFInfo ] 1
|  7>     print[ P_SCFIterInfo ] 1
|  8>     print[ P_OrbEn ] 0
|  9>     print[ P_Cartesian ] 0
| 10> end
| 11> *xyz 0 1
| 12>  N        1.4789020000     0.2702210000     0.5570570000
| 13>  C        2.5265630000    -0.0331870000    -0.0597190000
| 14>  O        2.6805210000    -1.1347640000    -0.8548180000
| 15>  C        4.0353000000    -1.2649560000    -1.2658690000
| 16>  C        4.6695950000     0.0446030000    -0.8751350000
| 17>  C        4.0288410000     1.2741370000    -1.3593570000
| 18>  N        3.7096960000     0.7440150000    -0.0221000000
| 19>  H        0.7588530000    -0.4295100000     0.3962140000
| 20>  H        4.0569420000    -1.4712850000    -2.3384130000
| 21>  H        4.4979920000    -2.1004600000    -0.7321030000
| 22>  H        5.7017340000     0.0480500000    -0.5456120000
| 23>  H        3.2632560000     1.1863120000    -2.1244780000
| 24>  H        4.5718150000     2.2110040000    -1.3440870000
| 25> *
| 26>
| 27>                          ****END OF INPUT****
 Total Charge           Charge          ....    0
 Multiplicity           Mult            ....    1
 Number of Electrons    NEL             ....   52
 Basis Dimension        Dim             ....  128

MULLIKEN ATOMIC CHARGES
-----------------------
   0 N :   -0.055507
   1 C :   -0.008941
   2 O :   -0.273335
   3 C :    0.288481
   4 C :   -0.145411
   5 C :    0.102265
   6 N :   -0.207008
   7 H :    0.100254
   8 H :    0.032545
   9 H :    0.030204
  10 H :    0.039508
  11 H :    0.047569
  12 H :    0.049375
Sum of atomic charges:    0.0000000

LOEWDIN ATOMIC CHARGES
----------------------
   0 N :   -0.133782
   1 C :    0.019521
   2 O :   -0.096535
   3 C :    0.076365
   4 C :   -0.012047
   5 C :    0.033124
   6 N :   -0.082961
   7 H :    0.058079
   8 H :    0.026600
   9 H :    0.024751
  10 H :    0.030005
  11 H :    0.025594
  12 H :    0.031284

  Mayer bond orders larger than 0.1
B(  0-N ,  1-C ) :   2.0448 B(  0-N ,  7-H ) :   0.9162 B(  1-C ,  2-O ) :   1.0828
B(  1-C ,  6-N ) :   1.0407 B(  2-O ,  3-C ) :   0.9777 B(  3-C ,  4-C ) :   1.0474
B(  3-C ,  8-H ) :   0.9325 B(  3-C ,  9-H ) :   0.9342 B(  4-C ,  5-C ) :   1.0404
B(  4-C ,  6-N ) :   0.9266 B(  4-C , 10-H ) :   0.9385 B(  5-C ,  6-N ) :   0.9401
B(  5-C , 11-H ) :   0.9258 B(  5-C , 12-H ) :   0.9484

FINAL SINGLE POINT ENERGY      -340.054170056250

DIPOLE MOMENT
-------------
                                X             Y             Z
Electronic contribution:     -2.03560      -0.28504       1.98781
Nuclear contribution   :      2.95223      -0.28707      -3.07492
                        -----------------------------------------
Total Dipole Moment    :      0.91663      -0.57212      -1.08712
                        -----------------------------------------
Magnitude (a.u.)       :      1.53276
Magnitude (Debye)      :      3.89597

                             ****ORCA TERMINATED NORMALLY****
TOTAL RUN TIME: 0 days 0 hours 0 minutes 6 seconds 55 msec
