                         Program Version 3.0.3 - RELEASE   -
|  1> ! RI PBE def2-SVP def2-SVP/J NBO PAL2
|  2> % maxcore 2000
|  3> % output
|  4>     # printlevel mini
|  5>     print[ P_Basis ] 0
|  6>     print[ P_SCFInfo ] 1
|  7>     print[ P_SCFIterInfo ] 1
|  8>     print[ P_OrbEn ] 0
|  9>     print[ P_Cartesian ] 0
| 10> end
| 11> *xyz 0 1
| 12>  N        0.8956560000     0.1260920000    -0.1056920000
| 13>  C        2.2805180000     0.1388810000    -0.1183860000
| 14>  C        3.1286790000     1.1924250000    -0.0032460000
| 15>  O        2.7987250000     2.4902150000     0.1519990000
| 16>  C        4.4546120000     0.6802080000    -0.0762250000
| 17>  C        4.3107540000    -0.6581870000    -0.2313770000
| 18>  O        3.0129680000    -1.0147120000    -0.2601750000
| 19>  H        0.4789790000    -0.1933300000    -0.9709200000
| 20>  H        0.4957470000    -0.3865680000     0.6698580000
| 21>  H        1.8346300000     2.5340820000     0.1671850000
| 22>  H        5.3759990000     1.2367000000    -0.0201990000
| 23>  H        5.0261530000    -1.4578860000    -0.3321120000
| 24> *
| 25>
| 26>                          ****END OF INPUT****
 Total Charge           Charge          ....    0
 Multiplicity           Mult            ....    1
 Number of Electrons    NEL             ....   52
 Basis Dimension        Dim             ....  123

MULLIKEN ATOMIC CHARGES
-----------------------
   0 N :   -0.098724
   1 C :   -0.065017
   2 C :    0.068627
   3 O :   -0.155906
   4 C :   -0.054054
   5 C :    0.111619
   6 O :   -0.178616
   7 H :    0.116025
   8 H :    0.116716
   9 H :    0.159623
  10 H :   -0.020073
  11 H :   -0.000220
Sum of atomic charges:   -0.0000000

LOEWDIN ATOMIC CHARGES
----------------------
   0 N :   -0.056034
   1 C :   -0.079297
   2 C :   -0.022259
   3 O :   -0.033775
   4 C :   -0.098573
   5 C :    0.015751
   6 O :    0.005631
   7 H :    0.067327
   8 H :    0.067510
   9 H :    0.083195
  10 H :    0.032097
  11 H :    0.018428

  Mayer bond orders larger than 0.1
B(  0-N ,  1-C ) :   1.2613 B(  0-N ,  7-H ) :   0.9523 B(  0-N ,  8-H ) :   0.9529
B(  1-C ,  2-C ) :   1.4659 B(  1-C ,  5-C ) :   0.1106 B(  1-C ,  6-O ) :   1.0740
B(  2-C ,  3-O ) :   1.2655 B(  2-C ,  4-C ) :   1.2232 B(  3-O ,  9-H ) :   0.9532
B(  4-C ,  5-C ) :   1.4937 B(  4-C , 10-H ) :   1.0185 B(  5-C ,  6-O ) :   1.1653
B(  5-C , 11-H ) :   1.0056

FINAL SINGLE POINT ENERGY      -359.927878877661

DIPOLE MOMENT
-------------
                                X             Y             Z
Electronic contribution:      0.66774       0.02612      -0.00299
Nuclear contribution   :     -1.30252      -0.42033      -0.03590
                        -----------------------------------------
Total Dipole Moment    :     -0.63478      -0.39421      -0.03888
                        -----------------------------------------
Magnitude (a.u.)       :      0.74824
Magnitude (Debye)      :      1.90186

                             ****ORCA TERMINATED NORMALLY****
TOTAL RUN TIME: 0 days 0 hours 0 minutes 6 seconds 207 msec
