                         Program Version 3.0.3 - RELEASE   -
|  1> ! RI PBE def2-SVP def2-SVP/J NBO PAL2
|  2> % maxcore 2000
|  3> % output
|  4>     # printlevel mini
|  5>     print[ P_Basis ] 0
|  6>     print[ P_SCFInfo ] 1
|  7>     print[ P_SCFIterInfo ] 1
|  8>     print[ P_OrbEn ] 0
|  9>     print[ P_Cartesian ] 0
| 10> end
| 11> *xyz 0 1
| 12>  N        2.7699470000     1.1028340000     0.0987100000
| 13>  C        2.1917680000    -0.1729920000    -0.2921540000
| 14>  C        2.6354440000    -1.2581160000     0.6448420000
| 15>  C        2.6250660000    -2.6879090000     0.2045000000
| 16>  C        3.9322060000    -1.9700870000     0.4029380000
| 17>  C        4.8145150000    -2.3538660000     1.5515960000
| 18>  O        5.6245670000    -3.4768120000     1.2697480000
| 19>  H        2.4580580000     1.8443120000    -0.5154800000
| 20>  H        3.7800410000     1.0633330000     0.0319690000
| 21>  H        2.4362600000    -0.4804000000    -1.3227880000
| 22>  H        1.1017300000    -0.0769730000    -0.2448790000
| 23>  H        2.3860210000    -1.0726550000     1.6856130000
| 24>  H        2.3115820000    -2.9069170000    -0.8094820000
| 25>  H        2.3392090000    -3.4375310000     0.9344940000
| 26>  H        4.4654030000    -1.7010500000    -0.5054660000
| 27>  H        4.1928810000    -2.5293160000     2.4426060000
| 28>  H        5.5071370000    -1.5436190000     1.7944690000
| 29>  H        5.0501850000    -4.1709460000     0.9342540000
| 30> *
| 31>
| 32>                          ****END OF INPUT****
 Total Charge           Charge          ....    0
 Multiplicity           Mult            ....    1
 Number of Electrons    NEL             ....   56
 Basis Dimension        Dim             ....  153

MULLIKEN ATOMIC CHARGES
-----------------------
   0 N :   -0.213678
   1 C :    0.168398
   2 C :   -0.151872
   3 C :    0.015091
   4 C :   -0.203388
   5 C :    0.289122
   6 O :   -0.290073
   7 H :    0.087723
   8 H :    0.087778
   9 H :   -0.029066
  10 H :    0.013137
  11 H :    0.020300
  12 H :    0.023291
  13 H :    0.023709
  14 H :    0.019743
  15 H :   -0.019210
  16 H :    0.009191
  17 H :    0.149803
Sum of atomic charges:    0.0000000

LOEWDIN ATOMIC CHARGES
----------------------
   0 N :   -0.111480
   1 C :    0.014886
   2 C :   -0.041795
   3 C :   -0.046733
   4 C :   -0.068242
   5 C :    0.062044
   6 O :   -0.125358
   7 H :    0.052146
   8 H :    0.050072
   9 H :   -0.002602
  10 H :    0.024095
  11 H :    0.027126
  12 H :    0.025443
  13 H :    0.023727
  14 H :    0.024574
  15 H :    0.003518
  16 H :    0.023127
  17 H :    0.065454

  Mayer bond orders larger than 0.1
B(  0-N ,  1-C ) :   1.0945 B(  0-N ,  7-H ) :   0.9636 B(  0-N ,  8-H ) :   0.9706
B(  1-C ,  2-C ) :   1.0772 B(  1-C ,  9-H ) :   0.9069 B(  1-C , 10-H ) :   0.9242
B(  2-C ,  3-C ) :   0.9910 B(  2-C ,  4-C ) :   0.9080 B(  2-C , 11-H ) :   0.9361
B(  3-C ,  4-C ) :   0.9862 B(  3-C , 12-H ) :   0.9342 B(  3-C , 13-H ) :   0.9386
B(  4-C ,  5-C ) :   1.0724 B(  4-C , 14-H ) :   0.9367 B(  5-C ,  6-O ) :   1.0615
B(  5-C , 15-H ) :   0.9189 B(  5-C , 16-H ) :   0.9299 B(  6-O , 17-H ) :   0.9854

FINAL SINGLE POINT ENERGY      -326.426449751923

DIPOLE MOMENT
-------------
                                X             Y             Z
Electronic contribution:      2.41284      -1.81734       1.01261
Nuclear contribution   :     -2.86863       1.89195      -1.58707
                        -----------------------------------------
Total Dipole Moment    :     -0.45579       0.07461      -0.57446
                        -----------------------------------------
Magnitude (a.u.)       :      0.73710
Magnitude (Debye)      :      1.87356

                             ****ORCA TERMINATED NORMALLY****
TOTAL RUN TIME: 0 days 0 hours 0 minutes 7 seconds 888 msec
