                         Program Version 3.0.3 - RELEASE   -
|  1> ! RI PBE def2-SVP def2-SVP/J NBO PAL2
|  2> % maxcore 2000
|  3> % output
|  4>     # printlevel mini
|  5>     print[ P_Basis ] 0
|  6>     print[ P_SCFInfo ] 1
|  7>     print[ P_SCFIterInfo ] 1
|  8>     print[ P_OrbEn ] 0
|  9>     print[ P_Cartesian ] 0
| 10> end
| 11> *xyz 0 1
| 12>  N        3.8873660000    -0.1847730000    -0.6061160000
| 13>  C        2.5986450000    -0.0671370000     0.0625250000
| 14>  C        2.6773470000    -0.6404690000     1.4571020000
| 15>  C        1.3815180000    -0.8247420000     2.2726570000
| 16>  C        1.9339880000    -2.1736110000     2.7725560000
| 17>  C        2.9546070000    -2.1513380000     1.6180890000
| 18>  O        2.5185800000    -2.8413420000     0.4629540000
| 19>  H        3.8753820000     0.3132820000    -1.4872320000
| 20>  H        4.0535180000    -1.1603730000    -0.8259670000
| 21>  H        1.7770130000    -0.5583730000    -0.4779460000
| 22>  H        2.3425600000     0.9952230000     0.1379470000
| 23>  H        3.4258320000    -0.0877350000     2.0317350000
| 24>  H        0.5161950000    -0.9577580000     1.6199070000
| 25>  H        1.1447710000    -0.0675380000     3.0212400000
| 26>  H        2.4250300000    -2.0866330000     3.7441880000
| 27>  H        1.2520920000    -3.0265070000     2.7963700000
| 28>  H        3.9846470000    -2.4334320000     1.8643180000
| 29>  H        2.5191180000    -3.7819430000     0.6571940000
| 30> *
| 31>
| 32>                          ****END OF INPUT****
 Total Charge           Charge          ....    0
 Multiplicity           Mult            ....    1
 Number of Electrons    NEL             ....   56
 Basis Dimension        Dim             ....  153

MULLIKEN ATOMIC CHARGES
-----------------------
   0 N :   -0.221196
   1 C :    0.164643
   2 C :   -0.182814
   3 C :    0.057146
   4 C :    0.047585
   5 C :    0.046335
   6 O :   -0.256137
   7 H :    0.085863
   8 H :    0.088714
   9 H :   -0.015172
  10 H :    0.000225
  11 H :    0.008746
  12 H :    0.008653
  13 H :    0.013683
  14 H :    0.008506
  15 H :   -0.004792
  16 H :   -0.006536
  17 H :    0.156548
Sum of atomic charges:   -0.0000000

LOEWDIN ATOMIC CHARGES
----------------------
   0 N :   -0.114833
   1 C :    0.006515
   2 C :   -0.048600
   3 C :   -0.029308
   4 C :   -0.048675
   5 C :    0.050863
   6 O :   -0.113527
   7 H :    0.050904
   8 H :    0.047678
   9 H :    0.000066
  10 H :    0.021014
  11 H :    0.029016
  12 H :    0.024216
  13 H :    0.017164
  14 H :    0.025651
  15 H :    0.015379
  16 H :   -0.004441
  17 H :    0.070918

  Mayer bond orders larger than 0.1
B(  0-N ,  1-C ) :   1.0979 B(  0-N ,  7-H ) :   0.9628 B(  0-N ,  8-H ) :   0.9671
B(  1-C ,  2-C ) :   1.0738 B(  1-C ,  9-H ) :   0.9064 B(  1-C , 10-H ) :   0.9238
B(  2-C ,  3-C ) :   1.0750 B(  2-C ,  5-C ) :   1.0373 B(  2-C , 11-H ) :   0.8975
B(  3-C ,  4-C ) :   1.1386 B(  3-C , 12-H ) :   0.9064 B(  3-C , 13-H ) :   0.9343
B(  4-C ,  5-C ) :   1.0811 B(  4-C , 14-H ) :   0.9196 B(  4-C , 15-H ) :   0.9101
B(  5-C ,  6-O ) :   1.0873 B(  5-C , 16-H ) :   0.9283 B(  6-O , 17-H ) :   0.9793

FINAL SINGLE POINT ENERGY      -326.431557490166

DIPOLE MOMENT
-------------
                                X             Y             Z
Electronic contribution:      0.83099      -1.84816      -0.93598
Nuclear contribution   :     -0.99133       1.32768       0.99173
                        -----------------------------------------
Total Dipole Moment    :     -0.16034      -0.52048       0.05575
                        -----------------------------------------
Magnitude (a.u.)       :      0.54747
Magnitude (Debye)      :      1.39156

                             ****ORCA TERMINATED NORMALLY****
TOTAL RUN TIME: 0 days 0 hours 0 minutes 7 seconds 768 msec
