                         Program Version 3.0.3 - RELEASE   -
|  1> ! RI PBE def2-SVP def2-SVP/J NBO PAL2
|  2> % maxcore 2000
|  3> % output
|  4>     # printlevel mini
|  5>     print[ P_Basis ] 0
|  6>     print[ P_SCFInfo ] 1
|  7>     print[ P_SCFIterInfo ] 1
|  8>     print[ P_OrbEn ] 0
|  9>     print[ P_Cartesian ] 0
| 10> end
| 11> *xyz 0 1
| 12>  N        3.4352100000     0.4466170000    -0.7634400000
| 13>  C        2.4694000000    -0.4600970000    -0.1712690000
| 14>  C        2.9382420000    -0.9079400000     1.1657580000
| 15>  C        3.8801250000    -0.4450290000     2.0235020000
| 16>  C        3.8453430000    -1.3107510000     3.1591210000
| 17>  C        2.8864430000    -2.2279040000     2.9020290000
| 18>  O        2.3279850000    -1.9984640000     1.6891970000
| 19>  H        3.0719130000     0.8420650000    -1.6200380000
| 20>  H        4.2897290000    -0.0464580000    -0.9912290000
| 21>  H        2.2453800000    -1.3546900000    -0.7731730000
| 22>  H        1.5209000000     0.0795130000    -0.0618000000
| 23>  H        4.5083270000     0.4152770000     1.8609380000
| 24>  H        4.4546730000    -1.2541200000     4.0471200000
| 25>  H        2.4997090000    -3.0720090000     3.4482940000
| 26> *
| 27>
| 28>                          ****END OF INPUT****
 Total Charge           Charge          ....    0
 Multiplicity           Mult            ....    1
 Number of Electrons    NEL             ....   52
 Basis Dimension        Dim             ....  133

MULLIKEN ATOMIC CHARGES
-----------------------
   0 N :   -0.216730
   1 C :    0.190477
   2 C :   -0.020824
   3 C :   -0.053074
   4 C :   -0.012186
   5 C :    0.108186
   6 O :   -0.178223
   7 H :    0.092981
   8 H :    0.094346
   9 H :    0.003882
  10 H :    0.022761
  11 H :   -0.020762
  12 H :   -0.009437
  13 H :   -0.001398
Sum of atomic charges:    0.0000000

LOEWDIN ATOMIC CHARGES
----------------------
   0 N :   -0.101472
   1 C :    0.003525
   2 C :   -0.005653
   3 C :   -0.083846
   4 C :   -0.081236
   5 C :    0.008667
   6 O :    0.025796
   7 H :    0.055963
   8 H :    0.054354
   9 H :    0.011834
  10 H :    0.034996
  11 H :    0.029516
  12 H :    0.029397
  13 H :    0.018161

  Mayer bond orders larger than 0.1
B(  0-N ,  1-C ) :   1.1138 B(  0-N ,  7-H ) :   0.9618 B(  0-N ,  8-H ) :   0.9679
B(  1-C ,  2-C ) :   1.0468 B(  1-C ,  9-H ) :   0.9049 B(  1-C , 10-H ) :   0.8956
B(  2-C ,  3-C ) :   1.5721 B(  2-C ,  5-C ) :   0.1054 B(  2-C ,  6-O ) :   1.1559
B(  3-C ,  4-C ) :   1.1846 B(  3-C , 11-H ) :   1.0119 B(  4-C ,  5-C ) :   1.5401
B(  4-C , 12-H ) :   0.9953 B(  5-C ,  6-O ) :   1.1359 B(  5-C , 13-H ) :   1.0013

FINAL SINGLE POINT ENERGY      -324.056090123220

DIPOLE MOMENT
-------------
                                X             Y             Z
Electronic contribution:     -0.82287      -2.35343       2.83764
Nuclear contribution   :      0.86114       2.25869      -3.34333
                        -----------------------------------------
Total Dipole Moment    :      0.03827      -0.09474      -0.50568
                        -----------------------------------------
Magnitude (a.u.)       :      0.51590
Magnitude (Debye)      :      1.31132

                             ****ORCA TERMINATED NORMALLY****
TOTAL RUN TIME: 0 days 0 hours 0 minutes 6 seconds 632 msec
