                         Program Version 3.0.3 - RELEASE   -
|  1> ! RI PBE def2-SVP def2-SVP/J NBO PAL2
|  2> % maxcore 2000
|  3> % output
|  4>     # printlevel mini
|  5>     print[ P_Basis ] 0
|  6>     print[ P_SCFInfo ] 1
|  7>     print[ P_SCFIterInfo ] 1
|  8>     print[ P_OrbEn ] 0
|  9>     print[ P_Cartesian ] 0
| 10> end
| 11> *xyz 0 1
| 12>  N        0.9285690000    -0.0660400000     0.0441620000
| 13>  C        2.0786990000     0.0071650000     0.0482350000
| 14>  C        3.4832500000     0.1310070000     0.0531370000
| 15>  C        4.2943470000     1.2244920000     0.0535030000
| 16>  C        5.6214350000     0.7242190000     0.0596240000
| 17>  C        5.5117980000    -0.6281700000     0.0624780000
| 18>  O        4.2218310000    -1.0070300000     0.0586160000
| 19>  H        3.9700450000     2.2525340000     0.0498230000
| 20>  H        6.5363680000     1.2940260000     0.0616380000
| 21>  H        6.2352670000    -1.4268050000     0.0670830000
| 22> *
| 23>
| 24>                          ****END OF INPUT****
 Total Charge           Charge          ....    0
 Multiplicity           Mult            ....    1
 Number of Electrons    NEL             ....   48
 Basis Dimension        Dim             ....  113

MULLIKEN ATOMIC CHARGES
-----------------------
   0 N :    0.101699
   1 C :   -0.078714
   2 C :   -0.064245
   3 C :    0.014106
   4 C :    0.000613
   5 C :    0.137593
   6 O :   -0.141199
   7 H :    0.002020
   8 H :    0.006375
   9 H :    0.021753
Sum of atomic charges:   -0.0000000

LOEWDIN ATOMIC CHARGES
----------------------
   0 N :   -0.035758
   1 C :   -0.049499
   2 C :   -0.033405
   3 C :   -0.027568
   4 C :   -0.067479
   5 C :    0.042667
   6 O :    0.058185
   7 H :    0.043127
   8 H :    0.039372
   9 H :    0.030357

  Mayer bond orders larger than 0.1
B(  0-N ,  1-C ) :   2.9891 B(  1-C ,  2-C ) :   1.1097 B(  2-C ,  3-C ) :   1.5164
B(  2-C ,  5-C ) :   0.1209 B(  2-C ,  6-O ) :   1.1821 B(  3-C ,  4-C ) :   1.2188
B(  3-C ,  7-H ) :   1.0186 B(  4-C ,  5-C ) :   1.4954 B(  4-C ,  8-H ) :   0.9896
B(  5-C ,  6-O ) :   1.1702 B(  5-C ,  9-H ) :   0.9999

FINAL SINGLE POINT ENERGY      -321.652833086638

DIPOLE MOMENT
-------------
                                X             Y             Z
Electronic contribution:     -3.42922      -1.56933      -0.00892
Nuclear contribution   :      5.12949       1.89363       0.01442
                        -----------------------------------------
Total Dipole Moment    :      1.70027       0.32431       0.00550
                        -----------------------------------------
Magnitude (a.u.)       :      1.73093
Magnitude (Debye)      :      4.39967

                             ****ORCA TERMINATED NORMALLY****
TOTAL RUN TIME: 0 days 0 hours 0 minutes 5 seconds 517 msec
