                         Program Version 3.0.3 - RELEASE   -
|  1> ! RI PBE def2-SVP def2-SVP/J NBO PAL2
|  2> % maxcore 2000
|  3> % output
|  4>     # printlevel mini
|  5>     print[ P_Basis ] 0
|  6>     print[ P_SCFInfo ] 1
|  7>     print[ P_SCFIterInfo ] 1
|  8>     print[ P_OrbEn ] 0
|  9>     print[ P_Cartesian ] 0
| 10> end
| 11> *xyz 0 1
| 12>  N        3.0587840000    -0.7678130000    -0.8526880000
| 13>  C        2.2844690000    -0.0749330000     0.1600660000
| 14>  C        2.8941500000    -0.2969520000     1.5254810000
| 15>  C        2.1815150000     0.4297300000     2.6600010000
| 16>  C        2.3450660000    -0.5355130000     3.8266910000
| 17>  C        2.2352600000    -1.8747660000     3.1198700000
| 18>  O        2.8370280000    -1.6899400000     1.8502650000
| 19>  H        2.6294740000    -0.6720200000    -1.7637420000
| 20>  H        3.0823110000    -1.7566310000    -0.6322470000
| 21>  H        1.2267120000    -0.3830220000     0.2099620000
| 22>  H        2.3012190000     0.9994090000    -0.0555180000
| 23>  H        3.9536000000    -0.0118510000     1.4808860000
| 24>  H        1.1208760000     0.5557540000     2.4175330000
| 25>  H        2.6040150000     1.4175120000     2.8485510000
| 26>  H        1.5962950000    -0.4048620000     4.6096420000
| 27>  H        3.3350090000    -0.4257170000     4.2779840000
| 28>  H        1.1824660000    -2.1675150000     3.0001810000
| 29>  H        2.7565610000    -2.6853680000     3.6352730000
| 30> *
| 31>
| 32>                          ****END OF INPUT****
 Total Charge           Charge          ....    0
 Multiplicity           Mult            ....    1
 Number of Electrons    NEL             ....   56
 Basis Dimension        Dim             ....  153

MULLIKEN ATOMIC CHARGES
-----------------------
   0 N :   -0.204714
   1 C :    0.123338
   2 C :    0.051740
   3 C :    0.025013
   4 C :   -0.062874
   5 C :    0.210384
   6 O :   -0.370729
   7 H :    0.084107
   8 H :    0.093164
   9 H :   -0.022115
  10 H :    0.001529
  11 H :   -0.004414
  12 H :    0.005816
  13 H :    0.016187
  14 H :    0.021469
  15 H :    0.024078
  16 H :   -0.002629
  17 H :    0.010651
Sum of atomic charges:    0.0000000

LOEWDIN ATOMIC CHARGES
----------------------
   0 N :   -0.110871
   1 C :   -0.004008
   2 C :    0.049327
   3 C :   -0.044988
   4 C :   -0.054771
   5 C :    0.066318
   6 O :   -0.166073
   7 H :    0.050808
   8 H :    0.050577
   9 H :   -0.002364
  10 H :    0.021305
  11 H :    0.011874
  12 H :    0.024365
  13 H :    0.029774
  14 H :    0.029348
  15 H :    0.028841
  16 H :    0.004175
  17 H :    0.016363

  Mayer bond orders larger than 0.1
B(  0-N ,  1-C ) :   1.1064 B(  0-N ,  7-H ) :   0.9638 B(  0-N ,  8-H ) :   0.9614
B(  1-C ,  2-C ) :   1.0661 B(  1-C ,  9-H ) :   0.9008 B(  1-C , 10-H ) :   0.9224
B(  2-C ,  3-C ) :   1.0582 B(  2-C ,  6-O ) :   0.9898 B(  2-C , 11-H ) :   0.9085
B(  3-C ,  4-C ) :   1.1114 B(  3-C , 12-H ) :   0.9192 B(  3-C , 13-H ) :   0.9270
B(  4-C ,  5-C ) :   1.0987 B(  4-C , 14-H ) :   0.9336 B(  4-C , 15-H ) :   0.9278
B(  5-C ,  6-O ) :   1.0083 B(  5-C , 16-H ) :   0.9345 B(  5-C , 17-H ) :   0.9406

FINAL SINGLE POINT ENERGY      -326.454557474210

DIPOLE MOMENT
-------------
                                X             Y             Z
Electronic contribution:      1.50212      -1.89955      -0.76658
Nuclear contribution   :     -2.08555       2.10076       1.07877
                        -----------------------------------------
Total Dipole Moment    :     -0.58342       0.20121       0.31219
                        -----------------------------------------
Magnitude (a.u.)       :      0.69161
Magnitude (Debye)      :      1.75794

                             ****ORCA TERMINATED NORMALLY****
TOTAL RUN TIME: 0 days 0 hours 0 minutes 7 seconds 763 msec
