                         Program Version 3.0.3 - RELEASE   -
|  1> ! RI PBE def2-SVP def2-SVP/J NBO PAL2
|  2> % maxcore 2000
|  3> % output
|  4>     # printlevel mini
|  5>     print[ P_Basis ] 0
|  6>     print[ P_SCFInfo ] 1
|  7>     print[ P_SCFIterInfo ] 1
|  8>     print[ P_OrbEn ] 0
|  9>     print[ P_Cartesian ] 0
| 10> end
| 11> *xyz 0 1
| 12>  N        1.3065090000    -0.3670050000     0.8508050000
| 13>  C        2.3569450000    -0.1468280000     0.4384510000
| 14>  C        3.7040890000     0.1468270000    -0.0808010000
| 15>  C        4.3606930000     1.3208340000     0.6884800000
| 16>  C        5.5503710000     0.6577290000     1.3954620000
| 17>  C        5.2045080000    -0.8198310000     1.3217310000
| 18>  O        4.5515500000    -0.9667520000     0.0699410000
| 19>  H        3.6078930000     0.3471260000    -1.1505250000
| 20>  H        3.6578690000     1.7591560000     1.3967470000
| 21>  H        4.6732910000     2.1051460000     0.0001900000
| 22>  H        5.6780620000     1.0104540000     2.4193850000
| 23>  H        6.4764600000     0.8499720000     0.8508380000
| 24>  H        4.5311830000    -1.1152590000     2.1378950000
| 25>  H        6.0677860000    -1.4848600000     1.3199920000
| 26> *
| 27>
| 28>                          ****END OF INPUT****
 Total Charge           Charge          ....    0
 Multiplicity           Mult            ....    1
 Number of Electrons    NEL             ....   52
 Basis Dimension        Dim             ....  133

MULLIKEN ATOMIC CHARGES
-----------------------
   0 N :    0.055051
   1 C :   -0.200593
   2 C :    0.053267
   3 C :    0.036872
   4 C :   -0.052663
   5 C :    0.205602
   6 O :   -0.319217
   7 H :    0.047714
   8 H :    0.040175
   9 H :    0.031824
  10 H :    0.025912
  11 H :    0.027653
  12 H :    0.015526
  13 H :    0.032877
Sum of atomic charges:   -0.0000000

LOEWDIN ATOMIC CHARGES
----------------------
   0 N :   -0.057320
   1 C :   -0.059809
   2 C :    0.029460
   3 C :   -0.033871
   4 C :   -0.048584
   5 C :    0.067563
   6 O :   -0.125821
   7 H :    0.048032
   8 H :    0.038838
   9 H :    0.036455
  10 H :    0.034455
  11 H :    0.030901
  12 H :    0.012238
  13 H :    0.027461

  Mayer bond orders larger than 0.1
B(  0-N ,  1-C ) :   3.0886 B(  1-C ,  2-C ) :   0.9948 B(  2-C ,  3-C ) :   1.1082
B(  2-C ,  6-O ) :   1.1187 B(  2-C ,  7-H ) :   0.8754 B(  3-C ,  4-C ) :   1.1209
B(  3-C ,  8-H ) :   0.9272 B(  3-C ,  9-H ) :   0.9257 B(  4-C ,  5-C ) :   1.1125
B(  4-C , 10-H ) :   0.9271 B(  4-C , 11-H ) :   0.9285 B(  5-C ,  6-O ) :   0.9762
B(  5-C , 12-H ) :   0.9252 B(  5-C , 13-H ) :   0.9480

FINAL SINGLE POINT ENERGY      -324.044759996439

DIPOLE MOMENT
-------------
                                X             Y             Z
Electronic contribution:     -5.42995      -2.70939      -2.10459
Nuclear contribution   :      6.81647       3.45721       2.12188
                        -----------------------------------------
Total Dipole Moment    :      1.38652       0.74782       0.01729
                        -----------------------------------------
Magnitude (a.u.)       :      1.57542
Magnitude (Debye)      :      4.00440

                             ****ORCA TERMINATED NORMALLY****
TOTAL RUN TIME: 0 days 0 hours 0 minutes 6 seconds 755 msec
