                         Program Version 3.0.3 - RELEASE   -
|  1> ! RI PBE def2-SVP def2-SVP/J NBO PAL2
|  2> % maxcore 2000
|  3> % output
|  4>     # printlevel mini
|  5>     print[ P_Basis ] 0
|  6>     print[ P_SCFInfo ] 1
|  7>     print[ P_SCFIterInfo ] 1
|  8>     print[ P_OrbEn ] 0
|  9>     print[ P_Cartesian ] 0
| 10> end
| 11> *xyz 0 1
| 12>  N        0.9299460000     0.0110390000     0.0445320000
| 13>  C        2.0791920000    -0.0361180000     0.0024650000
| 14>  C        3.4984540000    -0.1169840000    -0.0475900000
| 15>  C        4.2531210000    -1.2146710000    -0.0606670000
| 16>  C        5.6900530000    -0.7871060000    -0.0447930000
| 17>  C        5.5551390000     0.7191640000    -0.3054000000
| 18>  O        4.1756720000     1.0598740000    -0.0623570000
| 19>  H        3.8847810000    -2.2279050000    -0.0289020000
| 20>  H        6.2932170000    -1.2801950000    -0.8101640000
| 21>  H        6.1517840000    -1.0086020000     0.9243340000
| 22>  H        5.7755740000     0.9665100000    -1.3477840000
| 23>  H        6.1675760000     1.3403840000     0.3466060000
| 24> *
| 25>
| 26>                          ****END OF INPUT****
 Total Charge           Charge          ....    0
 Multiplicity           Mult            ....    1
 Number of Electrons    NEL             ....   50
 Basis Dimension        Dim             ....  123

MULLIKEN ATOMIC CHARGES
-----------------------
   0 N :    0.095724
   1 C :   -0.068637
   2 C :   -0.054872
   3 C :   -0.070963
   4 C :   -0.005911
   5 C :    0.208542
   6 O :   -0.269016
   7 H :    0.004334
   8 H :    0.044254
   9 H :    0.046755
  10 H :    0.030747
  11 H :    0.039044
Sum of atomic charges:   -0.0000000

LOEWDIN ATOMIC CHARGES
----------------------
   0 N :   -0.031376
   1 C :   -0.037362
   2 C :   -0.013614
   3 C :   -0.054353
   4 C :   -0.045249
   5 C :    0.093156
   6 O :   -0.079683
   7 H :    0.037645
   8 H :    0.041008
   9 H :    0.038450
  10 H :    0.023079
  11 H :    0.028297

  Mayer bond orders larger than 0.1
B(  0-N ,  1-C ) :   3.0078 B(  0-N ,  3-C ) :   0.1065 B(  1-C ,  2-C ) :   1.0947
B(  2-C ,  3-C ) :   1.7143 B(  2-C ,  6-O ) :   1.1769 B(  3-C ,  4-C ) :   1.0050
B(  3-C ,  6-O ) :   0.1123 B(  3-C ,  7-H ) :   0.9927 B(  4-C ,  5-C ) :   1.1030
B(  4-C ,  8-H ) :   0.9193 B(  4-C ,  9-H ) :   0.9148 B(  5-C ,  6-O ) :   0.9440
B(  5-C , 10-H ) :   0.9436 B(  5-C , 11-H ) :   0.9506

FINAL SINGLE POINT ENERGY      -322.835159296385

DIPOLE MOMENT
-------------
                                X             Y             Z
Electronic contribution:     -6.83961       1.49195       0.41797
Nuclear contribution   :      8.68489      -1.94053      -0.52439
                        -----------------------------------------
Total Dipole Moment    :      1.84528      -0.44858      -0.10642
                        -----------------------------------------
Magnitude (a.u.)       :      1.90200
Magnitude (Debye)      :      4.83451

                             ****ORCA TERMINATED NORMALLY****
TOTAL RUN TIME: 0 days 0 hours 0 minutes 5 seconds 441 msec
