                         Program Version 3.0.3 - RELEASE   -
|  1> ! RI PBE def2-SVP def2-SVP/J NBO PAL2
|  2> % maxcore 2000
|  3> % output
|  4>     # printlevel mini
|  5>     print[ P_Basis ] 0
|  6>     print[ P_SCFInfo ] 1
|  7>     print[ P_SCFIterInfo ] 1
|  8>     print[ P_OrbEn ] 0
|  9>     print[ P_Cartesian ] 0
| 10> end
| 11> *xyz 0 1
| 12>  N        2.0346570000     1.4185400000    -0.2036510000
| 13>  C        2.4958490000     0.0576450000    -0.0119130000
| 14>  C        3.2087370000    -0.0787130000     1.3133100000
| 15>  C        3.7309480000    -1.5017610000     1.5854100000
| 16>  C        5.2172270000    -1.2928950000     1.6030130000
| 17>  C        5.4644310000    -0.0011560000     1.4351080000
| 18>  O        4.3723220000     0.7887950000     1.2966700000
| 19>  H        1.5771980000     1.5215600000    -1.0999600000
| 20>  H        2.8283820000     2.0479080000    -0.1955760000
| 21>  H        3.1754860000    -0.3109390000    -0.7984780000
| 22>  H        1.6289790000    -0.6117980000     0.0054270000
| 23>  H        2.5609530000     0.2946590000     2.1101610000
| 24>  H        3.4149170000    -2.1950070000     0.7970710000
| 25>  H        3.3549890000    -1.9023330000     2.5317910000
| 26>  H        5.9598570000    -2.0640060000     1.7374940000
| 27>  H        6.4106590000     0.5216010000     1.3969440000
| 28> *
| 29>
| 30>                          ****END OF INPUT****
 Total Charge           Charge          ....    0
 Multiplicity           Mult            ....    1
 Number of Electrons    NEL             ....   54
 Basis Dimension        Dim             ....  143

MULLIKEN ATOMIC CHARGES
-----------------------
   0 N :   -0.208320
   1 C :    0.117862
   2 C :    0.023554
   3 C :    0.115766
   4 C :   -0.152079
   5 C :    0.151077
   6 O :   -0.290430
   7 H :    0.087824
   8 H :    0.094880
   9 H :   -0.009459
  10 H :    0.010004
  11 H :    0.016911
  12 H :    0.015739
  13 H :    0.024893
  14 H :   -0.001930
  15 H :    0.003708
Sum of atomic charges:    0.0000000

LOEWDIN ATOMIC CHARGES
----------------------
   0 N :   -0.110028
   1 C :   -0.002373
   2 C :    0.069141
   3 C :   -0.038312
   4 C :   -0.117976
   5 C :    0.035796
   6 O :   -0.096126
   7 H :    0.053044
   8 H :    0.051033
   9 H :    0.003408
  10 H :    0.024703
  11 H :    0.021841
  12 H :    0.028619
  13 H :    0.030527
  14 H :    0.025648
  15 H :    0.021053

  Mayer bond orders larger than 0.1
B(  0-N ,  1-C ) :   1.1006 B(  0-N ,  7-H ) :   0.9643 B(  0-N ,  8-H ) :   0.9631
B(  1-C ,  2-C ) :   1.0645 B(  1-C ,  9-H ) :   0.9068 B(  1-C , 10-H ) :   0.9243
B(  2-C ,  3-C ) :   1.0639 B(  2-C ,  6-O ) :   0.9516 B(  2-C , 11-H ) :   0.9148
B(  3-C ,  4-C ) :   1.0371 B(  3-C , 12-H ) :   0.9110 B(  3-C , 13-H ) :   0.9167
B(  4-C ,  5-C ) :   1.7499 B(  4-C ,  6-O ) :   0.1242 B(  4-C , 14-H ) :   0.9851
B(  5-C ,  6-O ) :   1.1025 B(  5-C , 15-H ) :   0.9909

FINAL SINGLE POINT ENERGY      -325.241763881629

DIPOLE MOMENT
-------------
                                X             Y             Z
Electronic contribution:      2.68764       1.82544       1.65459
Nuclear contribution   :     -2.61977      -2.16507      -2.05971
                        -----------------------------------------
Total Dipole Moment    :      0.06787      -0.33963      -0.40512
                        -----------------------------------------
Magnitude (a.u.)       :      0.53299
Magnitude (Debye)      :      1.35476

                             ****ORCA TERMINATED NORMALLY****
TOTAL RUN TIME: 0 days 0 hours 0 minutes 7 seconds 491 msec
