                         Program Version 3.0.3 - RELEASE   -
|  1> ! RI PBE def2-SVP def2-SVP/J NBO PAL2
|  2> % maxcore 2000
|  3> % output
|  4>     # printlevel mini
|  5>     print[ P_Basis ] 0
|  6>     print[ P_SCFInfo ] 1
|  7>     print[ P_SCFIterInfo ] 1
|  8>     print[ P_OrbEn ] 0
|  9>     print[ P_Cartesian ] 0
| 10> end
| 11> *xyz 0 1
| 12>  N        3.3102780000     0.5725150000    -0.7255250000
| 13>  C        2.2238920000    -0.2805000000    -0.2848130000
| 14>  C        2.7298870000    -1.3237830000     0.6458950000
| 15>  C        3.8749700000    -1.4560360000     1.3591610000
| 16>  C        3.6883670000    -2.6828440000     2.0386650000
| 17>  N        2.5423130000    -3.2329810000     1.7579700000
| 18>  O        1.9334120000    -2.3737610000     0.8700940000
| 19>  H        2.9510840000     1.3758250000    -1.2231610000
| 20>  H        3.9248450000     0.0723890000    -1.3557340000
| 21>  H        1.6671570000    -0.7823010000    -1.0901350000
| 22>  H        1.4959760000     0.3388440000     0.2510650000
| 23>  H        4.7060220000    -0.7735410000     1.3940220000
| 24>  H        4.3529180000    -3.1862150000     2.7264860000
| 25> *
| 26>
| 27>                          ****END OF INPUT****
 Total Charge           Charge          ....    0
 Multiplicity           Mult            ....    1
 Number of Electrons    NEL             ....   52
 Basis Dimension        Dim             ....  128

MULLIKEN ATOMIC CHARGES
-----------------------
   0 N :   -0.218667
   1 C :    0.182545
   2 C :    0.025414
   3 C :   -0.098301
   4 C :    0.041849
   5 N :   -0.029049
   6 O :   -0.162542
   7 H :    0.097688
   8 H :    0.098366
   9 H :    0.016173
  10 H :    0.035453
  11 H :    0.000089
  12 H :    0.010983
Sum of atomic charges:   -0.0000000

LOEWDIN ATOMIC CHARGES
----------------------
   0 N :   -0.100243
   1 C :    0.005965
   2 C :    0.007297
   3 C :   -0.107362
   4 C :   -0.040865
   5 N :   -0.042284
   6 O :    0.034928
   7 H :    0.058715
   8 H :    0.056706
   9 H :    0.018695
  10 H :    0.042776
  11 H :    0.035617
  12 H :    0.030054

  Mayer bond orders larger than 0.1
B(  0-N ,  1-C ) :   1.1197 B(  0-N ,  7-H ) :   0.9612 B(  0-N ,  8-H ) :   0.9699
B(  1-C ,  2-C ) :   1.0445 B(  1-C ,  9-H ) :   0.9069 B(  1-C , 10-H ) :   0.8999
B(  2-C ,  3-C ) :   1.5511 B(  2-C ,  5-N ) :   0.1176 B(  2-C ,  6-O ) :   1.1786
B(  3-C ,  4-C ) :   1.2009 B(  3-C , 11-H ) :   0.9901 B(  4-C ,  5-N ) :   1.6815
B(  4-C , 12-H ) :   0.9761 B(  5-N ,  6-O ) :   1.0100

FINAL SINGLE POINT ENERGY      -340.052549256210

DIPOLE MOMENT
-------------
                                X             Y             Z
Electronic contribution:     -1.28206      -4.68551       2.83296
Nuclear contribution   :      1.69434       5.66283      -3.60151
                        -----------------------------------------
Total Dipole Moment    :      0.41229       0.97732      -0.76855
                        -----------------------------------------
Magnitude (a.u.)       :      1.30989
Magnitude (Debye)      :      3.32947

                             ****ORCA TERMINATED NORMALLY****
TOTAL RUN TIME: 0 days 0 hours 0 minutes 5 seconds 912 msec
