                         Program Version 3.0.3 - RELEASE   -
|  1> ! RI PBE def2-SVP def2-SVP/J NBO PAL2
|  2> % maxcore 2000
|  3> % output
|  4>     # printlevel mini
|  5>     print[ P_Basis ] 0
|  6>     print[ P_SCFInfo ] 1
|  7>     print[ P_SCFIterInfo ] 1
|  8>     print[ P_OrbEn ] 0
|  9>     print[ P_Cartesian ] 0
| 10> end
| 11> *xyz 0 1
| 12>  N        0.9143850000    -0.0548370000     0.0211010000
| 13>  C        2.0625420000     0.0244680000     0.0249720000
| 14>  C        3.4707130000     0.1529340000     0.0296200000
| 15>  C        4.2799530000     1.2423140000     0.0300220000
| 16>  C        5.5710180000     0.6700950000     0.0358250000
| 17>  N        5.5240930000    -0.6330120000     0.0385740000
| 18>  O        4.2047380000    -0.9707720000     0.0347030000
| 19>  H        3.9921140000     2.2795810000     0.0266960000
| 20>  H        6.5315350000     1.1639280000     0.0380880000
| 21> *
| 22>
| 23>                          ****END OF INPUT****
 Total Charge           Charge          ....    0
 Multiplicity           Mult            ....    1
 Number of Electrons    NEL             ....   48
 Basis Dimension        Dim             ....  108

MULLIKEN ATOMIC CHARGES
-----------------------
   0 N :    0.125728
   1 C :   -0.065046
   2 C :   -0.018192
   3 C :   -0.037022
   4 C :    0.068070
   5 N :    0.003035
   6 O :   -0.124856
   7 H :    0.022429
   8 H :    0.025854
Sum of atomic charges:   -0.0000000

LOEWDIN ATOMIC CHARGES
----------------------
   0 N :   -0.011024
   1 C :   -0.041869
   2 C :   -0.019136
   3 C :   -0.052258
   4 C :   -0.025686
   5 N :   -0.007071
   6 O :    0.067115
   7 H :    0.049348
   8 H :    0.040581

  Mayer bond orders larger than 0.1
B(  0-N ,  1-C ) :   2.9964 B(  1-C ,  2-C ) :   1.1016 B(  2-C ,  3-C ) :   1.5215
B(  2-C ,  5-N ) :   0.1340 B(  2-C ,  6-O ) :   1.1920 B(  3-C ,  4-C ) :   1.2126
B(  3-C ,  7-H ) :   0.9968 B(  4-C ,  5-N ) :   1.6523 B(  4-C ,  8-H ) :   0.9721
B(  5-N ,  6-O ) :   1.0369

FINAL SINGLE POINT ENERGY      -337.641672051524

DIPOLE MOMENT
-------------
                                X             Y             Z
Electronic contribution:     -1.90996      -2.05530      -0.00214
Nuclear contribution   :      2.83619       3.14361       0.00292
                        -----------------------------------------
Total Dipole Moment    :      0.92624       1.08831       0.00078
                        -----------------------------------------
Magnitude (a.u.)       :      1.42910
Magnitude (Debye)      :      3.63248

                             ****ORCA TERMINATED NORMALLY****
TOTAL RUN TIME: 0 days 0 hours 0 minutes 4 seconds 916 msec
