                         Program Version 3.0.3 - RELEASE   -
|  1> ! RI PBE def2-SVP def2-SVP/J NBO PAL2
|  2> % maxcore 2000
|  3> % output
|  4>     # printlevel mini
|  5>     print[ P_Basis ] 0
|  6>     print[ P_SCFInfo ] 1
|  7>     print[ P_SCFIterInfo ] 1
|  8>     print[ P_OrbEn ] 0
|  9>     print[ P_Cartesian ] 0
| 10> end
| 11> *xyz 0 1
| 12>  N        0.9269670000     0.0082810000     0.2199460000
| 13>  C        2.0715640000     0.0516160000     0.1291470000
| 14>  C        3.5337150000     0.0720810000     0.0305060000
| 15>  C        4.0889100000    -1.1629020000    -0.6873840000
| 16>  C        4.4757060000    -0.5273410000    -1.9846690000
| 17>  N        4.4023630000     0.7359190000    -1.9939820000
| 18>  O        3.9515860000     1.1916820000    -0.7684030000
| 19>  H        3.9453520000     0.2089340000     1.0320720000
| 20>  H        3.3505050000    -1.9567610000    -0.8005940000
| 21>  H        4.9622610000    -1.5799520000    -0.1788470000
| 22>  H        4.8286700000    -1.0436560000    -2.8675910000
| 23> *
| 24>
| 25>                          ****END OF INPUT****
 Total Charge           Charge          ....    0
 Multiplicity           Mult            ....    1
 Number of Electrons    NEL             ....   50
 Basis Dimension        Dim             ....  118

MULLIKEN ATOMIC CHARGES
-----------------------
   0 N :    0.068315
   1 C :   -0.143890
   2 C :    0.063548
   3 C :    0.005289
   4 C :   -0.035013
   5 N :    0.047320
   6 O :   -0.246145
   7 H :    0.063812
   8 H :    0.072064
   9 H :    0.061719
  10 H :    0.042982
Sum of atomic charges:   -0.0000000

LOEWDIN ATOMIC CHARGES
----------------------
   0 N :   -0.037932
   1 C :   -0.051231
   2 C :    0.030653
   3 C :   -0.047125
   4 C :   -0.041069
   5 N :    0.027074
   6 O :   -0.076519
   7 H :    0.054228
   8 H :    0.054157
   9 H :    0.050454
  10 H :    0.037311

  Mayer bond orders larger than 0.1
B(  0-N ,  1-C ) :   3.0814 B(  1-C ,  2-C ) :   1.0192 B(  2-C ,  3-C ) :   1.1235
B(  2-C ,  6-O ) :   1.0312 B(  2-C ,  7-H ) :   0.8902 B(  3-C ,  4-C ) :   0.9867
B(  3-C ,  8-H ) :   0.9296 B(  3-C ,  9-H ) :   0.9090 B(  4-C ,  5-N ) :   1.9058
B(  4-C ,  6-O ) :   0.1057 B(  4-C , 10-H ) :   0.9667 B(  5-N ,  6-O ) :   0.9689

FINAL SINGLE POINT ENERGY      -338.819896748935

DIPOLE MOMENT
-------------
                                X             Y             Z
Electronic contribution:     -2.11428       3.08991       0.12709
Nuclear contribution   :      3.32693      -4.32591       0.09670
                        -----------------------------------------
Total Dipole Moment    :      1.21265      -1.23600       0.22379
                        -----------------------------------------
Magnitude (a.u.)       :      1.74594
Magnitude (Debye)      :      4.43783

                             ****ORCA TERMINATED NORMALLY****
TOTAL RUN TIME: 0 days 0 hours 0 minutes 5 seconds 513 msec
