                         Program Version 3.0.3 - RELEASE   -
|  1> ! RI PBE def2-SVP def2-SVP/J NBO PAL2
|  2> % maxcore 2000
|  3> % output
|  4>     # printlevel mini
|  5>     print[ P_Basis ] 0
|  6>     print[ P_SCFInfo ] 1
|  7>     print[ P_SCFIterInfo ] 1
|  8>     print[ P_OrbEn ] 0
|  9>     print[ P_Cartesian ] 0
| 10> end
| 11> *xyz 0 1
| 12>  N        1.7959350000     1.0794460000    -0.6895910000
| 13>  C        2.4820550000    -0.0292800000    -0.0586110000
| 14>  C        3.0113040000    -0.9802760000    -1.1103280000
| 15>  C        3.7061980000    -2.2081060000    -0.5298100000
| 16>  C        2.6896350000    -3.2553280000    -0.8481060000
| 17>  N        1.7253040000    -2.8500490000    -1.5644760000
| 18>  O        1.8884220000    -1.5158390000    -1.8581120000
| 19>  H        1.4264350000     1.7171740000     0.0030670000
| 20>  H        1.0119960000     0.7296660000    -1.2277900000
| 21>  H        1.8621750000    -0.6116300000     0.6439180000
| 22>  H        3.3366970000     0.3577420000     0.5072470000
| 23>  H        3.6238430000    -0.4299060000    -1.8274870000
| 24>  H        3.8851870000    -2.1179900000     0.5456870000
| 25>  H        4.6661020000    -2.4308430000    -1.0046350000
| 26>  H        2.7174120000    -4.2936020000    -0.5435050000
| 27> *
| 28>
| 29>                          ****END OF INPUT****
 Total Charge           Charge          ....    0
 Multiplicity           Mult            ....    1
 Number of Electrons    NEL             ....   54
 Basis Dimension        Dim             ....  138

MULLIKEN ATOMIC CHARGES
-----------------------
   0 N :   -0.207374
   1 C :    0.130410
   2 C :    0.034426
   3 C :    0.042914
   4 C :   -0.064871
   5 N :    0.030139
   6 O :   -0.279413
   7 H :    0.090462
   8 H :    0.100205
   9 H :   -0.009008
  10 H :    0.009970
  11 H :    0.019887
  12 H :    0.033405
  13 H :    0.042439
  14 H :    0.026409
Sum of atomic charges:   -0.0000000

LOEWDIN ATOMIC CHARGES
----------------------
   0 N :   -0.108439
   1 C :   -0.002854
   2 C :    0.044539
   3 C :   -0.060640
   4 C :   -0.056269
   5 N :    0.009903
   6 O :   -0.097240
   7 H :    0.054623
   8 H :    0.053724
   9 H :    0.003702
  10 H :    0.024359
  11 H :    0.024769
  12 H :    0.039452
  13 H :    0.041987
  14 H :    0.028384

  Mayer bond orders larger than 0.1
B(  0-N ,  1-C ) :   1.1080 B(  0-N ,  7-H ) :   0.9646 B(  0-N ,  8-H ) :   0.9605
B(  1-C ,  2-C ) :   1.0499 B(  1-C ,  9-H ) :   0.9037 B(  1-C , 10-H ) :   0.9226
B(  2-C ,  3-C ) :   1.0807 B(  2-C ,  6-O ) :   0.9377 B(  2-C , 11-H ) :   0.9144
B(  3-C ,  4-C ) :   0.9963 B(  3-C , 12-H ) :   0.9198 B(  3-C , 13-H ) :   0.9116
B(  4-C ,  5-N ) :   1.8987 B(  4-C ,  6-O ) :   0.1148 B(  4-C , 14-H ) :   0.9672
B(  5-N ,  6-O ) :   0.9889

FINAL SINGLE POINT ENERGY      -341.234249643504

DIPOLE MOMENT
-------------
                                X             Y             Z
Electronic contribution:     -2.10329      -3.35198      -3.39860
Nuclear contribution   :      2.75165       3.40092       4.36840
                        -----------------------------------------
Total Dipole Moment    :      0.64837       0.04894       0.96980
                        -----------------------------------------
Magnitude (a.u.)       :      1.16760
Magnitude (Debye)      :      2.96781

                             ****ORCA TERMINATED NORMALLY****
TOTAL RUN TIME: 0 days 0 hours 0 minutes 7 seconds 150 msec
