                         Program Version 3.0.3 - RELEASE   -
|  1> ! RI PBE def2-SVP def2-SVP/J NBO PAL2
|  2> % maxcore 2000
|  3> % output
|  4>     # printlevel mini
|  5>     print[ P_Basis ] 0
|  6>     print[ P_SCFInfo ] 1
|  7>     print[ P_SCFIterInfo ] 1
|  8>     print[ P_OrbEn ] 0
|  9>     print[ P_Cartesian ] 0
| 10> end
| 11> *xyz 0 1
| 12>  N        3.4134050000     0.7776570000    -0.6483120000
| 13>  C        2.4376440000    -0.1885040000    -0.1708770000
| 14>  C        2.8645090000    -0.7870870000     1.1269180000
| 15>  C        3.8164240000    -0.3202360000     1.9715390000
| 16>  O        3.9279500000    -1.1195850000     3.0595510000
| 17>  C        3.0291550000    -2.1141060000     2.9091670000
| 18>  C        2.3505680000    -1.9696330000     1.7480530000
| 19>  H        3.0744940000     1.2455050000    -1.4785810000
| 20>  H        4.2765310000     0.3090450000    -0.8965170000
| 21>  H        2.2288440000    -1.0034420000    -0.8821080000
| 22>  H        1.4874870000     0.3393180000    -0.0291520000
| 23>  H        4.4648300000     0.5381550000     1.9344080000
| 24>  H        2.9916760000    -2.8448330000     3.7002520000
| 25>  H        1.5779750000    -2.6230550000     1.3727580000
| 26> *
| 27>
| 28>                          ****END OF INPUT****
 Total Charge           Charge          ....    0
 Multiplicity           Mult            ....    1
 Number of Electrons    NEL             ....   52
 Basis Dimension        Dim             ....  133

MULLIKEN ATOMIC CHARGES
-----------------------
   0 N :   -0.216081
   1 C :    0.190159
   2 C :   -0.119897
   3 C :    0.067071
   4 O :   -0.162283
   5 C :    0.106384
   6 C :   -0.040731
   7 H :    0.090312
   8 H :    0.091763
   9 H :   -0.007443
  10 H :    0.018587
  11 H :   -0.002394
  12 H :    0.005711
  13 H :   -0.021158
Sum of atomic charges:   -0.0000000

LOEWDIN ATOMIC CHARGES
----------------------
   0 N :   -0.106054
   1 C :    0.015964
   2 C :   -0.092174
   3 C :    0.007942
   4 O :    0.033291
   5 C :    0.011344
   6 C :   -0.084281
   7 H :    0.054239
   8 H :    0.052703
   9 H :    0.007355
  10 H :    0.032844
  11 H :    0.019550
  12 H :    0.019503
  13 H :    0.027774

  Mayer bond orders larger than 0.1
B(  0-N ,  1-C ) :   1.1184 B(  0-N ,  7-H ) :   0.9628 B(  0-N ,  8-H ) :   0.9670
B(  1-C ,  2-C ) :   1.0552 B(  1-C ,  9-H ) :   0.9134 B(  1-C , 10-H ) :   0.9031
B(  2-C ,  3-C ) :   1.5445 B(  2-C ,  6-C ) :   1.2363 B(  3-C ,  4-O ) :   1.1435
B(  3-C , 11-H ) :   1.0001 B(  4-O ,  5-C ) :   1.1635 B(  5-C ,  6-C ) :   1.5257
B(  5-C , 12-H ) :   0.9960 B(  6-C , 13-H ) :   1.0076

FINAL SINGLE POINT ENERGY      -324.053290392344

DIPOLE MOMENT
-------------
                                X             Y             Z
Electronic contribution:      1.57659      -1.52199       4.92572
Nuclear contribution   :     -1.75630       1.33329      -5.60553
                        -----------------------------------------
Total Dipole Moment    :     -0.17971      -0.18869      -0.67982
                        -----------------------------------------
Magnitude (a.u.)       :      0.72805
Magnitude (Debye)      :      1.85055

                             ****ORCA TERMINATED NORMALLY****
TOTAL RUN TIME: 0 days 0 hours 0 minutes 6 seconds 637 msec
