                         Program Version 3.0.3 - RELEASE   -
|  1> ! RI PBE def2-SVP def2-SVP/J NBO PAL2
|  2> % maxcore 2000
|  3> % output
|  4>     # printlevel mini
|  5>     print[ P_Basis ] 0
|  6>     print[ P_SCFInfo ] 1
|  7>     print[ P_SCFIterInfo ] 1
|  8>     print[ P_OrbEn ] 0
|  9>     print[ P_Cartesian ] 0
| 10> end
| 11> *xyz 0 1
| 12>  N        0.8973350000     0.0375810000    -0.0946670000
| 13>  C        2.0488030000     0.0080310000    -0.0919460000
| 14>  C        3.4621420000    -0.0424060000    -0.0872530000
| 15>  C        4.3079930000     1.0249450000    -0.0847620000
| 16>  O        5.5787700000     0.6056170000    -0.0805260000
| 17>  C        5.5623230000    -0.7496590000    -0.0801670000
| 18>  C        4.2941040000    -1.2095470000    -0.0841440000
| 19>  H        4.1394750000     2.0888560000    -0.0856310000
| 20>  H        6.5241140000    -1.2339870000    -0.0769020000
| 21>  H        3.9687400000    -2.2366210000    -0.0849010000
| 22> *
| 23>
| 24>                          ****END OF INPUT****
 Total Charge           Charge          ....    0
 Multiplicity           Mult            ....    1
 Number of Electrons    NEL             ....   48
 Basis Dimension        Dim             ....  113

MULLIKEN ATOMIC CHARGES
-----------------------
   0 N :    0.092045
   1 C :   -0.117521
   2 C :   -0.150277
   3 C :    0.121241
   4 O :   -0.143490
   5 C :    0.128147
   6 C :    0.019788
   7 H :    0.024192
   8 H :    0.022287
   9 H :    0.003589
Sum of atomic charges:   -0.0000000

LOEWDIN ATOMIC CHARGES
----------------------
   0 N :   -0.051264
   1 C :   -0.037586
   2 C :   -0.116606
   3 C :    0.055490
   4 O :    0.057216
   5 C :    0.032314
   6 C :   -0.046730
   7 H :    0.034232
   8 H :    0.029521
   9 H :    0.043413

  Mayer bond orders larger than 0.1
B(  0-N ,  1-C ) :   2.9980 B(  1-C ,  2-C ) :   1.1522 B(  2-C ,  3-C ) :   1.4734
B(  2-C ,  6-C ) :   1.2238 B(  3-C ,  4-O ) :   1.1968 B(  3-C ,  7-H ) :   1.0104
B(  4-O ,  5-C ) :   1.1380 B(  5-C ,  6-C ) :   1.5314 B(  5-C ,  8-H ) :   0.9930
B(  6-C ,  9-H ) :   1.0149

FINAL SINGLE POINT ENERGY      -321.653785883262

DIPOLE MOMENT
-------------
                                X             Y             Z
Electronic contribution:     -1.56553       1.05512      -0.00560
Nuclear contribution   :      3.06807      -1.20154       0.01002
                        -----------------------------------------
Total Dipole Moment    :      1.50254      -0.14642       0.00442
                        -----------------------------------------
Magnitude (a.u.)       :      1.50967
Magnitude (Debye)      :      3.83726

                             ****ORCA TERMINATED NORMALLY****
TOTAL RUN TIME: 0 days 0 hours 0 minutes 5 seconds 193 msec
