                         Program Version 3.0.3 - RELEASE   -
|  1> ! RI PBE def2-SVP def2-SVP/J NBO PAL2
|  2> % maxcore 2000
|  3> % output
|  4>     # printlevel mini
|  5>     print[ P_Basis ] 0
|  6>     print[ P_SCFInfo ] 1
|  7>     print[ P_SCFIterInfo ] 1
|  8>     print[ P_OrbEn ] 0
|  9>     print[ P_Cartesian ] 0
| 10> end
| 11> *xyz 0 1
| 12>  N        2.6717170000    -1.3845450000     0.2715330000
| 13>  C        2.4018630000     0.0335990000     0.0880450000
| 14>  C        2.8961800000     0.8440020000     1.2688540000
| 15>  C        2.6923460000     2.3491720000     1.1335980000
| 16>  C        2.7726590000     2.8096500000     2.5782090000
| 17>  O        2.2615810000     1.7421980000     3.3639410000
| 18>  C        2.1550690000     0.5705790000     2.5735990000
| 19>  H        2.4276780000    -1.9049480000    -0.5613310000
| 20>  H        2.1090610000    -1.7615100000     1.0247030000
| 21>  H        1.3348830000     0.2670580000    -0.0703640000
| 22>  H        2.9308120000     0.3596300000    -0.8129340000
| 23>  H        3.9611030000     0.6305260000     1.4129420000
| 24>  H        1.6996470000     2.5555430000     0.7191580000
| 25>  H        3.4350040000     2.8290620000     0.4936740000
| 26>  H        2.1826520000     3.7078920000     2.7797800000
| 27>  H        3.8121180000     3.0118770000     2.8692750000
| 28>  H        1.0926810000     0.3599090000     2.3718860000
| 29>  H        2.5706250000    -0.2710950000     3.1350340000
| 30> *
| 31>
| 32>                          ****END OF INPUT****
 Total Charge           Charge          ....    0
 Multiplicity           Mult            ....    1
 Number of Electrons    NEL             ....   56
 Basis Dimension        Dim             ....  153

MULLIKEN ATOMIC CHARGES
-----------------------
   0 N :   -0.208167
   1 C :    0.130725
   2 C :   -0.242870
   3 C :   -0.009811
   4 C :    0.230790
   5 O :   -0.372169
   6 C :    0.254946
   7 H :    0.091968
   8 H :    0.088934
   9 H :   -0.016049
  10 H :    0.002821
  11 H :    0.020648
  12 H :    0.010505
  13 H :    0.020572
  14 H :    0.003359
  15 H :   -0.002710
  16 H :   -0.011803
  17 H :    0.008310
Sum of atomic charges:   -0.0000000

LOEWDIN ATOMIC CHARGES
----------------------
   0 N :   -0.110933
   1 C :    0.011654
   2 C :   -0.063995
   3 C :   -0.048075
   4 C :    0.069602
   5 O :   -0.167665
   6 C :    0.065269
   7 H :    0.054278
   8 H :    0.050082
   9 H :   -0.002774
  10 H :    0.022061
  11 H :    0.030103
  12 H :    0.023691
  13 H :    0.029590
  14 H :    0.014296
  15 H :    0.006355
  16 H :    0.001948
  17 H :    0.014513

  Mayer bond orders larger than 0.1
B(  0-N ,  1-C ) :   1.1064 B(  0-N ,  7-H ) :   0.9626 B(  0-N ,  8-H ) :   0.9687
B(  1-C ,  2-C ) :   1.0623 B(  1-C ,  9-H ) :   0.9093 B(  1-C , 10-H ) :   0.9255
B(  2-C ,  3-C ) :   1.0583 B(  2-C ,  6-C ) :   1.0492 B(  2-C , 11-H ) :   0.9031
B(  3-C ,  4-C ) :   1.0972 B(  3-C , 12-H ) :   0.9219 B(  3-C , 13-H ) :   0.9312
B(  4-C ,  5-O ) :   1.0077 B(  4-C , 14-H ) :   0.9395 B(  4-C , 15-H ) :   0.9355
B(  5-O ,  6-C ) :   1.0229 B(  6-C , 16-H ) :   0.9288 B(  6-C , 17-H ) :   0.9298

FINAL SINGLE POINT ENERGY      -326.447787882910

DIPOLE MOMENT
-------------
                                X             Y             Z
Electronic contribution:      0.06822       0.66808       3.30569
Nuclear contribution   :     -0.32492      -0.79035      -4.06422
                        -----------------------------------------
Total Dipole Moment    :     -0.25670      -0.12226      -0.75854
                        -----------------------------------------
Magnitude (a.u.)       :      0.81007
Magnitude (Debye)      :      2.05905

                             ****ORCA TERMINATED NORMALLY****
TOTAL RUN TIME: 0 days 0 hours 0 minutes 7 seconds 784 msec
