                         Program Version 3.0.3 - RELEASE   -
|  1> ! RI PBE def2-SVP def2-SVP/J NBO PAL2
|  2> % maxcore 2000
|  3> % output
|  4>     # printlevel mini
|  5>     print[ P_Basis ] 0
|  6>     print[ P_SCFInfo ] 1
|  7>     print[ P_SCFIterInfo ] 1
|  8>     print[ P_OrbEn ] 0
|  9>     print[ P_Cartesian ] 0
| 10> end
| 11> *xyz 0 1
| 12>  N        0.9038140000    -0.1036190000     0.4742240000
| 13>  C        2.0256520000    -0.0545140000     0.2250580000
| 14>  C        3.4445660000    -0.0066190000    -0.0735980000
| 15>  C        4.1855330000     1.1968560000     0.5615370000
| 16>  C        5.3742750000     0.5367220000     1.2708180000
| 17>  O        5.5233060000    -0.7356560000     0.6739210000
| 18>  C        4.2217830000    -1.2181630000     0.4823160000
| 19>  H        3.5556990000     0.0212550000    -1.1599930000
| 20>  H        3.5485790000     1.7453370000     1.2548060000
| 21>  H        4.5106960000     1.8874630000    -0.2159180000
| 22>  H        5.1697040000     0.4261930000     2.3445060000
| 23>  H        6.3118040000     1.0789510000     1.1486150000
| 24>  H        3.7743610000    -1.5474220000     1.4308160000
| 25>  H        4.2552170000    -2.0606840000    -0.2078080000
| 26> *
| 27>
| 28>                          ****END OF INPUT****
 Total Charge           Charge          ....    0
 Multiplicity           Mult            ....    1
 Number of Electrons    NEL             ....   52
 Basis Dimension        Dim             ....  133

MULLIKEN ATOMIC CHARGES
-----------------------
   0 N :    0.065435
   1 C :   -0.201255
   2 C :   -0.228644
   3 C :    0.045001
   4 C :    0.174749
   5 O :   -0.339810
   6 C :    0.266281
   7 H :    0.061613
   8 H :    0.035140
   9 H :    0.034961
  10 H :    0.009402
  11 H :    0.028723
  12 H :    0.010273
  13 H :    0.038131
Sum of atomic charges:    0.0000000

LOEWDIN ATOMIC CHARGES
----------------------
   0 N :   -0.065536
   1 C :   -0.044543
   2 C :   -0.076078
   3 C :   -0.034462
   4 C :    0.065690
   5 O :   -0.138351
   6 C :    0.078058
   7 H :    0.059137
   8 H :    0.039085
   9 H :    0.036299
  10 H :    0.012031
  11 H :    0.025846
  12 H :    0.013416
  13 H :    0.029409

  Mayer bond orders larger than 0.1
B(  0-N ,  1-C ) :   3.0707 B(  1-C ,  2-C ) :   1.0450 B(  2-C ,  3-C ) :   1.0977
B(  2-C ,  6-C ) :   1.0779 B(  2-C ,  7-H ) :   0.8535 B(  3-C ,  4-C ) :   1.1225
B(  3-C ,  8-H ) :   0.9207 B(  3-C ,  9-H ) :   0.9215 B(  4-C ,  5-O ) :   1.0254
B(  4-C , 10-H ) :   0.9162 B(  4-C , 11-H ) :   0.9458 B(  5-O ,  6-C ) :   1.0361
B(  6-C , 12-H ) :   0.9166 B(  6-C , 13-H ) :   0.9401

FINAL SINGLE POINT ENERGY      -324.046287366619

DIPOLE MOMENT
-------------
                                X             Y             Z
Electronic contribution:     -3.55145      -1.49721      -0.96303
Nuclear contribution   :      4.62268       1.86439       0.81823
                        -----------------------------------------
Total Dipole Moment    :      1.07123       0.36717      -0.14480
                        -----------------------------------------
Magnitude (a.u.)       :      1.14162
Magnitude (Debye)      :      2.90178

                             ****ORCA TERMINATED NORMALLY****
TOTAL RUN TIME: 0 days 0 hours 0 minutes 6 seconds 524 msec
