                         Program Version 3.0.3 - RELEASE   -
|  1> ! RI PBE def2-SVP def2-SVP/J NBO PAL2
|  2> % maxcore 2000
|  3> % output
|  4>     # printlevel mini
|  5>     print[ P_Basis ] 0
|  6>     print[ P_SCFInfo ] 1
|  7>     print[ P_SCFIterInfo ] 1
|  8>     print[ P_OrbEn ] 0
|  9>     print[ P_Cartesian ] 0
| 10> end
| 11> *xyz 0 1
| 12>  N        0.9044040000     0.0780200000    -0.0169180000
| 13>  C        2.0555030000     0.0249330000    -0.0280210000
| 14>  C        3.4710690000     0.0036860000    -0.0390090000
| 15>  C        4.2544570000    -1.0691220000    -0.1102400000
| 16>  C        5.6788440000    -0.6413280000    -0.0935150000
| 17>  O        5.6465470000     0.7708060000    -0.0074240000
| 18>  C        4.3163530000     1.2454460000     0.0316830000
| 19>  H        3.9255180000    -2.0975490000    -0.1711400000
| 20>  H        6.2114520000    -0.9533090000    -1.0029190000
| 21>  H        6.2228550000    -1.0610060000     0.7643940000
| 22>  H        4.1252920000     1.9173820000    -0.8145860000
| 23>  H        4.1380070000     1.8076530000     0.9570750000
| 24> *
| 25>
| 26>                          ****END OF INPUT****
 Total Charge           Charge          ....    0
 Multiplicity           Mult            ....    1
 Number of Electrons    NEL             ....   50
 Basis Dimension        Dim             ....  123

MULLIKEN ATOMIC CHARGES
-----------------------
   0 N :    0.086978
   1 C :   -0.113116
   2 C :   -0.287535
   3 C :   -0.061984
   4 C :    0.256356
   5 O :   -0.358533
   6 C :    0.318776
   7 H :    0.011932
   8 H :    0.037162
   9 H :    0.038434
  10 H :    0.036686
  11 H :    0.034845
Sum of atomic charges:   -0.0000000

LOEWDIN ATOMIC CHARGES
----------------------
   0 N :   -0.043754
   1 C :   -0.039254
   2 C :   -0.091037
   3 C :    0.007715
   4 C :    0.076548
   5 O :   -0.152851
   6 C :    0.093596
   7 H :    0.041318
   8 H :    0.027336
   9 H :    0.027610
  10 H :    0.026552
  11 H :    0.026222

  Mayer bond orders larger than 0.1
B(  0-N ,  1-C ) :   2.9795 B(  0-N ,  3-C ) :   0.1107 B(  1-C ,  2-C ) :   1.1631
B(  2-C ,  3-C ) :   1.8009 B(  2-C ,  6-C ) :   1.0069 B(  3-C ,  4-C ) :   1.0090
B(  3-C ,  7-H ) :   0.9865 B(  4-C ,  5-O ) :   1.0152 B(  4-C ,  8-H ) :   0.9137
B(  4-C ,  9-H ) :   0.9136 B(  5-O ,  6-C ) :   1.0044 B(  6-C , 10-H ) :   0.9194
B(  6-C , 11-H ) :   0.9189

FINAL SINGLE POINT ENERGY      -322.831019832380

DIPOLE MOMENT
-------------
                                X             Y             Z
Electronic contribution:     -3.99260       0.26076       0.04103
Nuclear contribution   :      5.08990      -0.73717      -0.07763
                        -----------------------------------------
Total Dipole Moment    :      1.09730      -0.47641      -0.03660
                        -----------------------------------------
Magnitude (a.u.)       :      1.19682
Magnitude (Debye)      :      3.04207

                             ****ORCA TERMINATED NORMALLY****
TOTAL RUN TIME: 0 days 0 hours 0 minutes 6 seconds 155 msec
