                         Program Version 3.0.3 - RELEASE   -
|  1> ! RI PBE def2-SVP def2-SVP/J NBO PAL2
|  2> % maxcore 2000
|  3> % output
|  4>     # printlevel mini
|  5>     print[ P_Basis ] 0
|  6>     print[ P_SCFInfo ] 1
|  7>     print[ P_SCFIterInfo ] 1
|  8>     print[ P_OrbEn ] 0
|  9>     print[ P_Cartesian ] 0
| 10> end
| 11> *xyz 0 1
| 12>  N        1.4991610000     1.0288000000     0.6766950000
| 13>  C        2.2775230000     0.0113600000    -0.0250280000
| 14>  C        2.7060080000    -1.0815680000     0.8928450000
| 15>  C        2.4852570000    -2.3842260000     0.7857960000
| 16>  C        3.1382410000    -3.1139210000     1.9094210000
| 17>  O        3.7658500000    -2.1078620000     2.6880990000
| 18>  C        3.5340910000    -0.8349800000     2.1170050000
| 19>  H        1.1767900000     1.7295960000     0.0209300000
| 20>  H        2.0748920000     1.5130430000     1.3547970000
| 21>  H        3.1757170000     0.4186370000    -0.5208770000
| 22>  H        1.6501840000    -0.4143190000    -0.8118470000
| 23>  H        1.9162420000    -2.8735120000     0.0050860000
| 24>  H        3.8898560000    -3.8375690000     1.5624610000
| 25>  H        2.4155890000    -3.6649760000     2.5281900000
| 26>  H        4.4935100000    -0.3520510000     1.8736370000
| 27>  H        3.0165790000    -0.1928330000     2.8445900000
| 28> *
| 29>
| 30>                          ****END OF INPUT****
 Total Charge           Charge          ....    0
 Multiplicity           Mult            ....    1
 Number of Electrons    NEL             ....   54
 Basis Dimension        Dim             ....  143

MULLIKEN ATOMIC CHARGES
-----------------------
   0 N :   -0.219432
   1 C :    0.171341
   2 C :   -0.199189
   3 C :   -0.145978
   4 C :    0.264464
   5 O :   -0.370804
   6 C :    0.284623
   7 H :    0.092089
   8 H :    0.088856
   9 H :    0.001160
  10 H :   -0.002817
  11 H :   -0.014652
  12 H :    0.015172
  13 H :    0.017423
  14 H :    0.003344
  15 H :    0.014401
Sum of atomic charges:   -0.0000000

LOEWDIN ATOMIC CHARGES
----------------------
   0 N :   -0.110287
   1 C :    0.013568
   2 C :   -0.053405
   3 C :   -0.057047
   4 C :    0.072769
   5 O :   -0.162205
   6 C :    0.071848
   7 H :    0.054313
   8 H :    0.048280
   9 H :    0.008893
  10 H :    0.027750
  11 H :    0.025943
  12 H :    0.015115
  13 H :    0.016797
  14 H :    0.013024
  15 H :    0.014644

  Mayer bond orders larger than 0.1
B(  0-N ,  1-C ) :   1.0814 B(  0-N ,  7-H ) :   0.9635 B(  0-N ,  8-H ) :   0.9668
B(  1-C ,  2-C ) :   1.0628 B(  1-C ,  9-H ) :   0.9028 B(  1-C , 10-H ) :   0.9136
B(  2-C ,  3-C ) :   1.8877 B(  2-C ,  6-C ) :   1.0380 B(  3-C ,  4-C ) :   1.0202
B(  3-C , 11-H ) :   0.9792 B(  4-C ,  5-O ) :   1.0169 B(  4-C , 12-H ) :   0.9189
B(  4-C , 13-H ) :   0.9173 B(  5-O ,  6-C ) :   1.0162 B(  6-C , 14-H ) :   0.9097
B(  6-C , 15-H ) :   0.9113

FINAL SINGLE POINT ENERGY      -325.228136718043

DIPOLE MOMENT
-------------
                                X             Y             Z
Electronic contribution:      1.05055      -2.18769       1.96781
Nuclear contribution   :     -1.08623       2.67636      -2.71533
                        -----------------------------------------
Total Dipole Moment    :     -0.03568       0.48868      -0.74752
                        -----------------------------------------
Magnitude (a.u.)       :      0.89379
Magnitude (Debye)      :      2.27184

                             ****ORCA TERMINATED NORMALLY****
TOTAL RUN TIME: 0 days 0 hours 0 minutes 7 seconds 108 msec
