                         Program Version 3.0.3 - RELEASE   -
|  1> ! RI PBE def2-SVP def2-SVP/J NBO PAL2
|  2> % maxcore 2000
|  3> % output
|  4>     # printlevel mini
|  5>     print[ P_Basis ] 0
|  6>     print[ P_SCFInfo ] 1
|  7>     print[ P_SCFIterInfo ] 1
|  8>     print[ P_OrbEn ] 0
|  9>     print[ P_Cartesian ] 0
| 10> end
| 11> *xyz 0 1
| 12>  N        2.6514530000    -1.4123900000     0.1246910000
| 13>  C        2.3972570000     0.0176090000     0.2098280000
| 14>  C        2.7844010000     0.7069210000    -1.0745640000
| 15>  C        2.6816760000     2.2442640000    -1.1358550000
| 16>  C        4.0159660000     2.2840980000    -1.8898320000
| 17>  O        3.7578380000     2.3780440000    -3.2736760000
| 18>  C        4.2881740000     0.8442800000    -1.4078880000
| 19>  H        2.3842490000    -1.8775110000     0.9829640000
| 20>  H        3.6416150000    -1.5841240000    -0.0053590000
| 21>  H        2.9227280000     0.5137680000     1.0448860000
| 22>  H        1.3252530000     0.1620640000     0.3845760000
| 23>  H        2.2507770000     0.2458330000    -1.9082170000
| 24>  H        2.7678840000     2.6967110000    -0.1442980000
| 25>  H        1.8328900000     2.6830960000    -1.6611440000
| 26>  H        4.7372010000     3.0495480000    -1.5792450000
| 27>  H        4.5733740000     2.1905880000    -3.7458730000
| 28>  H        4.9040690000     0.8386640000    -0.5025500000
| 29>  H        4.7208940000     0.1585180000    -2.1398240000
| 30> *
| 31>
| 32>                          ****END OF INPUT****
 Total Charge           Charge          ....    0
 Multiplicity           Mult            ....    1
 Number of Electrons    NEL             ....   56
 Basis Dimension        Dim             ....  153

MULLIKEN ATOMIC CHARGES
-----------------------
   0 N :   -0.209658
   1 C :    0.150022
   2 C :   -0.233466
   3 C :    0.150578
   4 C :   -0.038689
   5 O :   -0.255271
   6 C :    0.121428
   7 H :    0.086958
   8 H :    0.084031
   9 H :   -0.027444
  10 H :    0.005765
  11 H :    0.015473
  12 H :   -0.003643
  13 H :    0.015319
  14 H :   -0.006367
  15 H :    0.154170
  16 H :   -0.008685
  17 H :   -0.000521
Sum of atomic charges:   -0.0000000

LOEWDIN ATOMIC CHARGES
----------------------
   0 N :   -0.111667
   1 C :    0.004483
   2 C :   -0.038556
   3 C :   -0.030724
   4 C :    0.050883
   5 O :   -0.113509
   6 C :   -0.053279
   7 H :    0.051790
   8 H :    0.048407
   9 H :   -0.006884
  10 H :    0.022271
  11 H :    0.029494
  12 H :    0.023991
  13 H :    0.024099
  14 H :   -0.004985
  15 H :    0.068321
  16 H :    0.020917
  17 H :    0.014949

  Mayer bond orders larger than 0.1
B(  0-N ,  1-C ) :   1.0930 B(  0-N ,  7-H ) :   0.9624 B(  0-N ,  8-H ) :   0.9705
B(  1-C ,  2-C ) :   1.0767 B(  1-C ,  9-H ) :   0.9067 B(  1-C , 10-H ) :   0.9226
B(  2-C ,  3-C ) :   1.0712 B(  2-C ,  6-C ) :   1.0761 B(  2-C , 11-H ) :   0.8980
B(  3-C ,  4-C ) :   1.0849 B(  3-C , 12-H ) :   0.9040 B(  3-C , 13-H ) :   0.9092
B(  4-C ,  5-O ) :   1.0883 B(  4-C ,  6-C ) :   1.0762 B(  4-C , 14-H ) :   0.9241
B(  5-O , 15-H ) :   0.9820 B(  6-C , 16-H ) :   0.8975 B(  6-C , 17-H ) :   0.9112

FINAL SINGLE POINT ENERGY      -326.429449860761

DIPOLE MOMENT
-------------
                                X             Y             Z
Electronic contribution:      0.32701       1.64281      -3.39349
Nuclear contribution   :      0.39169      -1.74544       3.88846
                        -----------------------------------------
Total Dipole Moment    :      0.71870      -0.10263       0.49497
                        -----------------------------------------
Magnitude (a.u.)       :      0.87867
Magnitude (Debye)      :      2.23340

                             ****ORCA TERMINATED NORMALLY****
TOTAL RUN TIME: 0 days 0 hours 0 minutes 7 seconds 697 msec
