                         Program Version 3.0.3 - RELEASE   -
|  1> ! RI PBE def2-SVP def2-SVP/J NBO PAL2
|  2> % maxcore 2000
|  3> % output
|  4>     # printlevel mini
|  5>     print[ P_Basis ] 0
|  6>     print[ P_SCFInfo ] 1
|  7>     print[ P_SCFIterInfo ] 1
|  8>     print[ P_OrbEn ] 0
|  9>     print[ P_Cartesian ] 0
| 10> end
| 11> *xyz 0 1
| 12>  N        1.2610280000    -0.7145660000     0.2006650000
| 13>  C        2.1897980000     0.2975790000    -0.2787070000
| 14>  C        2.9349050000    -0.2000310000    -1.4710450000
| 15>  N        4.2292340000    -0.0523800000    -1.5485360000
| 16>  O        4.6047950000    -0.5894230000    -2.7553730000
| 17>  C        3.5204680000    -1.0598250000    -3.3754530000
| 18>  C        2.4194870000    -0.8526280000    -2.6226030000
| 19>  H        0.6791330000    -0.3377580000     0.9375260000
| 20>  H        1.7665040000    -1.5013080000     0.5897110000
| 21>  H        2.9272390000     0.6421920000     0.4578380000
| 22>  H        1.6037390000     1.1726610000    -0.5787310000
| 23>  H        3.6873380000    -1.5140300000    -4.3399010000
| 24>  H        1.3979410000    -1.1227820000    -2.8273820000
| 25> *
| 26>
| 27>                          ****END OF INPUT****
 Total Charge           Charge          ....    0
 Multiplicity           Mult            ....    1
 Number of Electrons    NEL             ....   52
 Basis Dimension        Dim             ....  128

MULLIKEN ATOMIC CHARGES
-----------------------
   0 N :   -0.223345
   1 C :    0.207016
   2 C :   -0.149038
   3 N :   -0.028908
   4 O :   -0.147728
   5 C :    0.171527
   6 C :   -0.060444
   7 H :    0.094132
   8 H :    0.093580
   9 H :    0.001366
  10 H :    0.022109
  11 H :    0.020535
  12 H :   -0.000800
Sum of atomic charges:   -0.0000000

LOEWDIN ATOMIC CHARGES
----------------------
   0 N :   -0.107013
   1 C :    0.011550
   2 C :   -0.061564
   3 N :   -0.048684
   4 O :    0.041175
   5 C :    0.030595
   6 C :   -0.092650
   7 H :    0.055454
   8 H :    0.055699
   9 H :    0.013805
  10 H :    0.036709
  11 H :    0.027563
  12 H :    0.037361

  Mayer bond orders larger than 0.1
B(  0-N ,  1-C ) :   1.0991 B(  0-N ,  7-H ) :   0.9652 B(  0-N ,  8-H ) :   0.9712
B(  1-C ,  2-C ) :   1.0620 B(  1-C ,  9-H ) :   0.9053 B(  1-C , 10-H ) :   0.9040
B(  2-C ,  3-N ) :   1.6728 B(  2-C ,  6-C ) :   1.2262 B(  3-N ,  4-O ) :   1.0070
B(  3-N ,  5-C ) :   0.1160 B(  4-O ,  5-C ) :   1.1849 B(  5-C ,  6-C ) :   1.5331
B(  5-C , 11-H ) :   0.9751 B(  6-C , 12-H ) :   0.9910

FINAL SINGLE POINT ENERGY      -340.051601755620

DIPOLE MOMENT
-------------
                                X             Y             Z
Electronic contribution:      4.81469      -0.28791      -3.72707
Nuclear contribution   :     -5.62587       0.06444       3.87501
                        -----------------------------------------
Total Dipole Moment    :     -0.81118      -0.22347       0.14794
                        -----------------------------------------
Magnitude (a.u.)       :      0.85431
Magnitude (Debye)      :      2.17148

                             ****ORCA TERMINATED NORMALLY****
TOTAL RUN TIME: 0 days 0 hours 0 minutes 5 seconds 916 msec
