                         Program Version 3.0.3 - RELEASE   -
|  1> ! RI PBE def2-SVP def2-SVP/J NBO PAL2
|  2> % maxcore 2000
|  3> % output
|  4>     # printlevel mini
|  5>     print[ P_Basis ] 0
|  6>     print[ P_SCFInfo ] 1
|  7>     print[ P_SCFIterInfo ] 1
|  8>     print[ P_OrbEn ] 0
|  9>     print[ P_Cartesian ] 0
| 10> end
| 11> *xyz 0 1
| 12>  N        0.9256390000     0.0927130000    -0.0930100000
| 13>  C        2.0752900000     0.0745030000    -0.0927730000
| 14>  C        3.4956220000    -0.0073310000    -0.0925010000
| 15>  N        4.2249410000     1.0833790000    -0.0925280000
| 16>  O        5.5118540000     0.6545310000    -0.0922270000
| 17>  C        5.5469530000    -0.6808440000    -0.0920230000
| 18>  C        4.2926660000    -1.1805180000    -0.0921780000
| 19>  H        6.5270320000    -1.1307920000    -0.0917760000
| 20>  H        3.9694830000    -2.2069210000    -0.0920830000
| 21> *
| 22>
| 23>                          ****END OF INPUT****
 Total Charge           Charge          ....    0
 Multiplicity           Mult            ....    1
 Number of Electrons    NEL             ....   48
 Basis Dimension        Dim             ....  108

MULLIKEN ATOMIC CHARGES
-----------------------
   0 N :    0.122999
   1 C :   -0.066419
   2 C :   -0.187258
   3 N :    0.014507
   4 O :   -0.122977
   5 C :    0.196106
   6 C :   -0.010168
   7 H :    0.035635
   8 H :    0.017575
Sum of atomic charges:    0.0000000

LOEWDIN ATOMIC CHARGES
----------------------
   0 N :   -0.020968
   1 C :   -0.030597
   2 C :   -0.085824
   3 N :   -0.003666
   4 O :    0.070296
   5 C :    0.049202
   6 C :   -0.065511
   7 H :    0.037874
   8 H :    0.049193

  Mayer bond orders larger than 0.1
B(  0-N ,  1-C ) :   3.0233 B(  1-C ,  2-C ) :   1.1303 B(  2-C ,  3-N ) :   1.6170
B(  2-C ,  6-C ) :   1.2430 B(  3-N ,  4-O ) :   1.0350 B(  3-N ,  5-C ) :   0.1194
B(  4-O ,  5-C ) :   1.1749 B(  5-C ,  6-C ) :   1.5324 B(  5-C ,  7-H ) :   0.9731
B(  6-C ,  8-H ) :   0.9921

FINAL SINGLE POINT ENERGY      -337.641411917664

DIPOLE MOMENT
-------------
                                X             Y             Z
Electronic contribution:     -1.33430       2.00612      -0.00053
Nuclear contribution   :      2.75905      -3.15627       0.00098
                        -----------------------------------------
Total Dipole Moment    :      1.42474      -1.15016       0.00045
                        -----------------------------------------
Magnitude (a.u.)       :      1.83105
Magnitude (Debye)      :      4.65417

                             ****ORCA TERMINATED NORMALLY****
TOTAL RUN TIME: 0 days 0 hours 0 minutes 4 seconds 905 msec
