                         Program Version 3.0.3 - RELEASE   -
|  1> ! RI PBE def2-SVP def2-SVP/J NBO PAL2
|  2> % maxcore 2000
|  3> % output
|  4>     # printlevel mini
|  5>     print[ P_Basis ] 0
|  6>     print[ P_SCFInfo ] 1
|  7>     print[ P_SCFIterInfo ] 1
|  8>     print[ P_OrbEn ] 0
|  9>     print[ P_Cartesian ] 0
| 10> end
| 11> *xyz 0 1
| 12>  N        2.7696160000    -1.2765660000     0.2178760000
| 13>  C        2.5033800000     0.1453550000     0.0776100000
| 14>  C        2.8837730000     0.6186700000    -1.3054970000
| 15>  C        2.9721960000     2.1447600000    -1.5253680000
| 16>  C        4.4415270000     1.8964050000    -1.8885200000
| 17>  O        5.3543990000     2.5588460000    -2.2925750000
| 18>  N        4.3192110000     0.5645730000    -1.5992960000
| 19>  H        2.3266200000    -1.6467250000     1.0484400000
| 20>  H        3.7641420000    -1.4365660000     0.3245210000
| 21>  H        3.0232330000     0.7726840000     0.8186870000
| 22>  H        1.4295710000     0.3112210000     0.2091040000
| 23>  H        2.2835660000     0.0963730000    -2.0563710000
| 24>  H        2.8256010000     2.7554590000    -0.6336760000
| 25>  H        2.3796890000     2.5409690000    -2.3491230000
| 26>  H        4.9136670000    -0.2069580000    -1.8612030000
| 27> *
| 28>
| 29>                          ****END OF INPUT****
 Total Charge           Charge          ....    0
 Multiplicity           Mult            ....    1
 Number of Electrons    NEL             ....   54
 Basis Dimension        Dim             ....  138

MULLIKEN ATOMIC CHARGES
-----------------------
   0 N :   -0.215988
   1 C :    0.146102
   2 C :   -0.039554
   3 C :    0.015705
   4 C :    0.062670
   5 O :   -0.163983
   6 N :   -0.179836
   7 H :    0.095242
   8 H :    0.085393
   9 H :   -0.017859
  10 H :    0.016191
  11 H :    0.017831
  12 H :    0.029707
  13 H :    0.044712
  14 H :    0.103669
Sum of atomic charges:   -0.0000000

LOEWDIN ATOMIC CHARGES
----------------------
   0 N :   -0.110479
   1 C :   -0.001676
   2 C :    0.026759
   3 C :   -0.055201
   4 C :    0.021239
   5 O :   -0.160139
   6 N :   -0.013665
   7 H :    0.056056
   8 H :    0.049212
   9 H :    0.002052
  10 H :    0.028243
  11 H :    0.019362
  12 H :    0.036331
  13 H :    0.040432
  14 H :    0.061474

  Mayer bond orders larger than 0.1
B(  0-N ,  1-C ) :   1.0979 B(  0-N ,  7-H ) :   0.9639 B(  0-N ,  8-H ) :   0.9688
B(  1-C ,  2-C ) :   1.0510 B(  1-C ,  9-H ) :   0.9047 B(  1-C , 10-H ) :   0.9270
B(  2-C ,  3-C ) :   1.0598 B(  2-C ,  6-N ) :   1.0221 B(  2-C , 11-H ) :   0.9079
B(  3-C ,  4-C ) :   0.9438 B(  3-C , 12-H ) :   0.8978 B(  3-C , 13-H ) :   0.9128
B(  4-C ,  5-O ) :   2.1782 B(  4-C ,  6-N ) :   1.1683 B(  5-O ,  6-N ) :   0.1101
B(  6-N , 14-H ) :   0.9384

FINAL SINGLE POINT ENERGY      -341.293139163128

DIPOLE MOMENT
-------------
                                X             Y             Z
Electronic contribution:      4.77398       2.96087      -3.69893
Nuclear contribution   :     -5.57225      -3.88893       4.48650
                        -----------------------------------------
Total Dipole Moment    :     -0.79827      -0.92806       0.78757
                        -----------------------------------------
Magnitude (a.u.)       :      1.45561
Magnitude (Debye)      :      3.69986

                             ****ORCA TERMINATED NORMALLY****
TOTAL RUN TIME: 0 days 0 hours 0 minutes 7 seconds 260 msec
