                         Program Version 3.0.3 - RELEASE   -
|  1> ! RI PBE def2-SVP def2-SVP/J NBO PAL2
|  2> % maxcore 2000
|  3> % output
|  4>     # printlevel mini
|  5>     print[ P_Basis ] 0
|  6>     print[ P_SCFInfo ] 1
|  7>     print[ P_SCFIterInfo ] 1
|  8>     print[ P_OrbEn ] 0
|  9>     print[ P_Cartesian ] 0
| 10> end
| 11> *xyz 0 1
| 12>  N        3.2896010000    -0.2220200000    -0.9577990000
| 13>  C        2.3186870000    -0.0981170000     0.1099760000
| 14>  C        2.9117310000    -0.5861650000     1.4010040000
| 15>  C        1.9733880000    -0.7777480000     2.5892370000
| 16>  C        2.3155790000    -2.2446210000     2.4179120000
| 17>  O        2.0420080000    -3.2762140000     2.9308700000
| 18>  O        3.1509650000    -2.0348130000     1.3622670000
| 19>  H        2.9209820000     0.1386870000    -1.8277150000
| 20>  H        3.5180270000    -1.1976890000    -1.1074770000
| 21>  H        1.3735810000    -0.6389960000    -0.0627230000
| 22>  H        2.0665720000     0.9601260000     0.2390770000
| 23>  H        3.8529980000    -0.0781400000     1.6167330000
| 24>  H        0.9224920000    -0.5450180000     2.4145270000
| 25>  H        2.2952800000    -0.3547720000     3.5398020000
| 26> *
| 27>
| 28>                          ****END OF INPUT****
 Total Charge           Charge          ....    0
 Multiplicity           Mult            ....    1
 Number of Electrons    NEL             ....   54
 Basis Dimension        Dim             ....  133

MULLIKEN ATOMIC CHARGES
-----------------------
   0 N :   -0.209847
   1 C :    0.157147
   2 C :   -0.020135
   3 C :    0.003158
   4 C :    0.117681
   5 O :   -0.126755
   6 O :   -0.253188
   7 H :    0.093449
   8 H :    0.100011
   9 H :   -0.014654
  10 H :    0.021554
  11 H :    0.031289
  12 H :    0.044735
  13 H :    0.055555
Sum of atomic charges:    0.0000000

LOEWDIN ATOMIC CHARGES
----------------------
   0 N :   -0.105148
   1 C :   -0.001651
   2 C :    0.068266
   3 C :   -0.067111
   4 C :    0.036788
   5 O :   -0.107872
   6 O :   -0.090178
   7 H :    0.056325
   8 H :    0.056200
   9 H :    0.004697
  10 H :    0.032702
  11 H :    0.024303
  12 H :    0.044894
  13 H :    0.047784

  Mayer bond orders larger than 0.1
B(  0-N ,  1-C ) :   1.1044 B(  0-N ,  7-H ) :   0.9625 B(  0-N ,  8-H ) :   0.9650
B(  1-C ,  2-C ) :   1.0577 B(  1-C ,  9-H ) :   0.8965 B(  1-C , 10-H ) :   0.9203
B(  2-C ,  3-C ) :   1.0670 B(  2-C ,  6-O ) :   0.9729 B(  2-C , 11-H ) :   0.9143
B(  3-C ,  4-C ) :   0.9620 B(  3-C , 12-H ) :   0.9130 B(  3-C , 13-H ) :   0.9188
B(  4-C ,  5-O ) :   2.2228 B(  4-C ,  6-O ) :   1.1181 B(  5-O ,  6-O ) :   0.1123

FINAL SINGLE POINT ENERGY      -361.135537631160

DIPOLE MOMENT
-------------
                                X             Y             Z
Electronic contribution:      0.62644      -5.80308       3.91844
Nuclear contribution   :     -1.01953       7.08254      -4.46546
                        -----------------------------------------
Total Dipole Moment    :     -0.39309       1.27947      -0.54702
                        -----------------------------------------
Magnitude (a.u.)       :      1.44596
Magnitude (Debye)      :      3.67533

                             ****ORCA TERMINATED NORMALLY****
TOTAL RUN TIME: 0 days 0 hours 0 minutes 6 seconds 409 msec
