                         Program Version 3.0.3 - RELEASE   -
|  1> ! RI PBE def2-SVP def2-SVP/J NBO PAL2
|  2> % maxcore 2000
|  3> % output
|  4>     # printlevel mini
|  5>     print[ P_Basis ] 0
|  6>     print[ P_SCFInfo ] 1
|  7>     print[ P_SCFIterInfo ] 1
|  8>     print[ P_OrbEn ] 0
|  9>     print[ P_Cartesian ] 0
| 10> end
| 11> *xyz 0 1
| 12>  N        1.2287150000     0.2612710000     0.3006460000
| 13>  C        1.4551600000    -0.9640020000    -0.4454570000
| 14>  C        2.4133890000    -1.8645820000     0.2791090000
| 15>  C        3.1641130000    -2.9113100000    -0.4749210000
| 16>  N        3.8391600000    -1.7598970000     0.0456820000
| 17>  C        4.4785410000    -0.8257060000    -0.7284990000
| 18>  O        5.1376920000    -1.0672000000    -1.7061500000
| 19>  H        0.4845060000     0.8042590000    -0.1172030000
| 20>  H        2.0567040000     0.8441430000     0.3051110000
| 21>  H        1.8220690000    -0.8151420000    -1.4740920000
| 22>  H        0.4978980000    -1.4893380000    -0.5230950000
| 23>  H        2.1464620000    -2.0660420000     1.3132830000
| 24>  H        3.0362780000    -2.9520140000    -1.5529140000
| 25>  H        3.3923210000    -3.8570790000     0.0040270000
| 26>  H        4.3897990000     0.1947270000    -0.3097270000
| 27> *
| 28>
| 29>                          ****END OF INPUT****
 Total Charge           Charge          ....    0
 Multiplicity           Mult            ....    1
 Number of Electrons    NEL             ....   54
 Basis Dimension        Dim             ....  138

MULLIKEN ATOMIC CHARGES
-----------------------
   0 N :   -0.207744
   1 C :    0.142202
   2 C :   -0.083726
   3 C :    0.089698
   4 N :   -0.190157
   5 C :    0.134133
   6 O :   -0.196088
   7 H :    0.096559
   8 H :    0.086291
   9 H :   -0.001399
  10 H :    0.023795
  11 H :    0.032866
  12 H :    0.045808
  13 H :    0.046078
  14 H :   -0.018316
Sum of atomic charges:   -0.0000000

LOEWDIN ATOMIC CHARGES
----------------------
   0 N :   -0.106443
   1 C :    0.001611
   2 C :    0.020137
   3 C :    0.031181
   4 N :   -0.056629
   5 C :    0.047724
   6 O :   -0.149667
   7 H :    0.057329
   8 H :    0.048731
   9 H :    0.008250
  10 H :    0.034044
  11 H :    0.027905
  12 H :    0.024226
  13 H :    0.029626
  14 H :   -0.018025

  Mayer bond orders larger than 0.1
B(  0-N ,  1-C ) :   1.0947 B(  0-N ,  7-H ) :   0.9621 B(  0-N ,  8-H ) :   0.9701
B(  1-C ,  2-C ) :   1.0714 B(  1-C ,  9-H ) :   0.9028 B(  1-C , 10-H ) :   0.9239
B(  2-C ,  3-C ) :   1.0048 B(  2-C ,  4-N ) :   0.9206 B(  2-C , 11-H ) :   0.9284
B(  3-C ,  4-N ) :   0.9574 B(  3-C , 12-H ) :   0.9359 B(  3-C , 13-H ) :   0.9393
B(  4-N ,  5-C ) :   1.1317 B(  5-C ,  6-O ) :   2.0859 B(  5-C , 14-H ) :   0.9195

FINAL SINGLE POINT ENERGY      -341.256870491347

DIPOLE MOMENT
-------------
                                X             Y             Z
Electronic contribution:      5.28386      -0.63375      -0.68219
Nuclear contribution   :     -6.44656       0.71983       0.87212
                        -----------------------------------------
Total Dipole Moment    :     -1.16271       0.08608       0.18993
                        -----------------------------------------
Magnitude (a.u.)       :      1.18126
Magnitude (Debye)      :      3.00251

                             ****ORCA TERMINATED NORMALLY****
TOTAL RUN TIME: 0 days 0 hours 0 minutes 6 seconds 589 msec
