                         Program Version 3.0.3 - RELEASE   -
|  1> ! RI PBE def2-SVP def2-SVP/J NBO PAL2
|  2> % maxcore 2000
|  3> % output
|  4>     # printlevel mini
|  5>     print[ P_Basis ] 0
|  6>     print[ P_SCFInfo ] 1
|  7>     print[ P_SCFIterInfo ] 1
|  8>     print[ P_OrbEn ] 0
|  9>     print[ P_Cartesian ] 0
| 10> end
| 11> *xyz 0 1
| 12>  N        2.1196130000     1.2940070000    -0.6345270000
| 13>  C        2.4050240000     0.0199660000     0.0074000000
| 14>  C        3.0762340000    -0.9064280000    -0.9612300000
| 15>  C        3.1023950000    -2.4130820000    -0.7647250000
| 16>  N        2.4955740000    -3.1174790000     0.3262210000
| 17>  C        2.2622380000    -1.8055120000    -1.8349390000
| 18>  O        2.6217760000    -1.9100980000    -3.1741750000
| 19>  H        1.5963100000     1.9020240000    -0.0172100000
| 20>  H        1.5572470000     1.1470410000    -1.4642590000
| 21>  H        1.5137780000    -0.4758820000     0.4250320000
| 22>  H        3.0753010000     0.2109840000     0.8534870000
| 23>  H        3.9602470000    -0.4967370000    -1.4399080000
| 24>  H        4.0115910000    -2.8840450000    -1.1266260000
| 25>  H        1.5147050000    -2.8916960000     0.4175700000
| 26>  H        2.9430880000    -2.8957930000     1.2070160000
| 27>  H        1.1856060000    -1.8033690000    -1.6476320000
| 28>  H        2.5083840000    -2.8252810000    -3.4458930000
| 29> *
| 30>
| 31>                          ****END OF INPUT****
 Total Charge           Charge          ....    0
 Multiplicity           Mult            ....    1
 Number of Electrons    NEL             ....   56
 Basis Dimension        Dim             ....  148

MULLIKEN ATOMIC CHARGES
-----------------------
   0 N :   -0.209825
   1 C :    0.182987
   2 C :   -0.117886
   3 C :   -0.057055
   4 N :   -0.114091
   5 C :    0.039994
   6 O :   -0.225951
   7 H :    0.084528
   8 H :    0.090139
   9 H :   -0.052745
  10 H :    0.005430
  11 H :    0.024380
  12 H :    0.013296
  13 H :    0.078143
  14 H :    0.097185
  15 H :    0.001302
  16 H :    0.160168
Sum of atomic charges:    0.0000000

LOEWDIN ATOMIC CHARGES
----------------------
   0 N :   -0.110034
   1 C :    0.012371
   2 C :   -0.069378
   3 C :   -0.020521
   4 N :   -0.083347
   5 C :    0.020965
   6 O :   -0.096237
   7 H :    0.050472
   8 H :    0.051510
   9 H :   -0.011864
  10 H :    0.020640
  11 H :    0.032864
  12 H :    0.021996
  13 H :    0.046216
  14 H :    0.056143
  15 H :    0.002950
  16 H :    0.075253

  Mayer bond orders larger than 0.1
B(  0-N ,  1-C ) :   1.1068 B(  0-N ,  7-H ) :   0.9630 B(  0-N ,  8-H ) :   0.9674
B(  1-C ,  2-C ) :   1.0778 B(  1-C ,  9-H ) :   0.8976 B(  1-C , 10-H ) :   0.9191
B(  2-C ,  3-C ) :   0.8731 B(  2-C ,  5-C ) :   0.9215 B(  2-C , 11-H ) :   0.9259
B(  3-C ,  4-N ) :   1.1668 B(  3-C ,  5-C ) :   0.9547 B(  3-C , 12-H ) :   0.9299
B(  4-N , 13-H ) :   0.9628 B(  4-N , 14-H ) :   0.9685 B(  5-C ,  6-O ) :   1.1553
B(  5-C , 15-H ) :   0.9351 B(  6-O , 16-H ) :   0.9793

FINAL SINGLE POINT ENERGY      -342.440349000442

DIPOLE MOMENT
-------------
                                X             Y             Z
Electronic contribution:      0.91998      -1.68436      -3.20172
Nuclear contribution   :     -1.57750       1.46732       3.68436
                        -----------------------------------------
Total Dipole Moment    :     -0.65753      -0.21704       0.48264
                        -----------------------------------------
Magnitude (a.u.)       :      0.84403
Magnitude (Debye)      :      2.14535

                             ****ORCA TERMINATED NORMALLY****
TOTAL RUN TIME: 0 days 0 hours 0 minutes 7 seconds 520 msec
