                         Program Version 3.0.3 - RELEASE   -
|  1> ! RI PBE def2-SVP def2-SVP/J NBO PAL2
|  2> % maxcore 2000
|  3> % output
|  4>     # printlevel mini
|  5>     print[ P_Basis ] 0
|  6>     print[ P_SCFInfo ] 1
|  7>     print[ P_SCFIterInfo ] 1
|  8>     print[ P_OrbEn ] 0
|  9>     print[ P_Cartesian ] 0
| 10> end
| 11> *xyz 0 1
| 12>  N        3.2108650000     0.1646690000    -0.9841850000
| 13>  C        2.3047670000     0.0286840000     0.1403920000
| 14>  C        2.9729620000    -0.8011220000     1.2151540000
| 15>  C        2.1203120000    -1.2549140000     2.4214490000
| 16>  N        2.3667440000    -2.6281660000     1.9994340000
| 17>  C        3.0803960000    -2.2992490000     0.8860720000
| 18>  O        3.5532200000    -2.9505510000    -0.0063790000
| 19>  H        2.7753340000     0.6753620000    -1.7408670000
| 20>  H        3.4636400000    -0.7523890000    -1.3358680000
| 21>  H        1.3363600000    -0.4374870000    -0.1102340000
| 22>  H        2.0831840000     1.0251460000     0.5376500000
| 23>  H        3.9365090000    -0.3656660000     1.4871970000
| 24>  H        1.0696450000    -0.9559000000     2.3661130000
| 25>  H        2.5252600000    -1.0070010000     3.4049150000
| 26>  H        2.0135910000    -3.5133940000     2.3274660000
| 27> *
| 28>
| 29>                          ****END OF INPUT****
 Total Charge           Charge          ....    0
 Multiplicity           Mult            ....    1
 Number of Electrons    NEL             ....   54
 Basis Dimension        Dim             ....  138

MULLIKEN ATOMIC CHARGES
-----------------------
   0 N :   -0.216350
   1 C :    0.158510
   2 C :   -0.306331
   3 C :    0.253490
   4 N :   -0.211322
   5 C :    0.147910
   6 O :   -0.180676
   7 H :    0.089673
   8 H :    0.099876
   9 H :   -0.014566
  10 H :    0.009712
  11 H :    0.039456
  12 H :    0.011189
  13 H :    0.017663
  14 H :    0.101767
Sum of atomic charges:    0.0000000

LOEWDIN ATOMIC CHARGES
----------------------
   0 N :   -0.109608
   1 C :    0.017180
   2 C :   -0.065779
   3 C :    0.051027
   4 N :   -0.004425
   5 C :    0.021083
   6 O :   -0.169666
   7 H :    0.053834
   8 H :    0.052726
   9 H :   -0.000900
  10 H :    0.020728
  11 H :    0.038184
  12 H :    0.016044
  13 H :    0.018032
  14 H :    0.061537

  Mayer bond orders larger than 0.1
B(  0-N ,  1-C ) :   1.1040 B(  0-N ,  7-H ) :   0.9615 B(  0-N ,  8-H ) :   0.9590
B(  1-C ,  2-C ) :   1.0423 B(  1-C ,  9-H ) :   0.9116 B(  1-C , 10-H ) :   0.9295
B(  2-C ,  3-C ) :   1.0347 B(  2-C ,  5-C ) :   0.8895 B(  2-C , 11-H ) :   0.8855
B(  3-C ,  4-N ) :   1.0241 B(  3-C , 12-H ) :   0.9247 B(  3-C , 13-H ) :   0.9278
B(  4-N ,  5-C ) :   1.2029 B(  4-N ,  6-O ) :   0.1182 B(  4-N , 14-H ) :   0.9386
B(  5-C ,  6-O ) :   2.1303

FINAL SINGLE POINT ENERGY      -341.292270287866

DIPOLE MOMENT
-------------
                                X             Y             Z
Electronic contribution:      1.95253      -5.08100       0.09420
Nuclear contribution   :     -2.97644       5.40078       0.71210
                        -----------------------------------------
Total Dipole Moment    :     -1.02391       0.31978       0.80629
                        -----------------------------------------
Magnitude (a.u.)       :      1.34192
Magnitude (Debye)      :      3.41090

                             ****ORCA TERMINATED NORMALLY****
TOTAL RUN TIME: 0 days 0 hours 0 minutes 7 seconds 325 msec
