                         Program Version 3.0.3 - RELEASE   -
|  1> ! RI PBE def2-SVP def2-SVP/J NBO PAL2
|  2> % maxcore 2000
|  3> % output
|  4>     # printlevel mini
|  5>     print[ P_Basis ] 0
|  6>     print[ P_SCFInfo ] 1
|  7>     print[ P_SCFIterInfo ] 1
|  8>     print[ P_OrbEn ] 0
|  9>     print[ P_Cartesian ] 0
| 10> end
| 11> *xyz 0 1
| 12>  N        1.3474380000     0.6383660000     0.0428420000
| 13>  C        2.3240890000    -0.4269850000    -0.0764420000
| 14>  C        2.8354050000    -0.4884790000    -1.4676610000
| 15>  C        2.7736110000     0.3277260000    -2.5424350000
| 16>  N        3.4464440000    -0.2596680000    -3.5999730000
| 17>  C        3.8716770000    -1.3726130000    -3.1234260000
| 18>  O        3.5415140000    -1.5937750000    -1.8354600000
| 19>  H        1.0985120000     0.7863860000     1.0112040000
| 20>  H        0.5006480000     0.4041800000    -0.4601320000
| 21>  H        1.9562160000    -1.4269940000     0.2022240000
| 22>  H        3.1551250000    -0.2069710000     0.6038300000
| 23>  H        2.3008670000     1.2923350000    -2.6212290000
| 24>  H        4.4486340000    -2.1391000000    -3.6171330000
| 25> *
| 26>
| 27>                          ****END OF INPUT****
 Total Charge           Charge          ....    0
 Multiplicity           Mult            ....    1
 Number of Electrons    NEL             ....   52
 Basis Dimension        Dim             ....  128

MULLIKEN ATOMIC CHARGES
-----------------------
   0 N :   -0.216425
   1 C :    0.187613
   2 C :   -0.035048
   3 C :   -0.022694
   4 N :   -0.117483
   5 C :    0.127957
   6 O :   -0.171294
   7 H :    0.095284
   8 H :    0.096824
   9 H :    0.008196
  10 H :    0.030951
  11 H :   -0.005181
  12 H :    0.021297
Sum of atomic charges:    0.0000000

LOEWDIN ATOMIC CHARGES
----------------------
   0 N :   -0.099276
   1 C :    0.004800
   2 C :   -0.017702
   3 C :   -0.051928
   4 N :   -0.092558
   5 C :    0.023918
   6 O :    0.023461
   7 H :    0.057559
   8 H :    0.055819
   9 H :    0.013911
  10 H :    0.038831
  11 H :    0.024290
  12 H :    0.018876

  Mayer bond orders larger than 0.1
B(  0-N ,  1-C ) :   1.1188 B(  0-N ,  7-H ) :   0.9624 B(  0-N ,  8-H ) :   0.9680
B(  1-C ,  2-C ) :   1.0387 B(  1-C ,  9-H ) :   0.9079 B(  1-C , 10-H ) :   0.8984
B(  2-C ,  3-C ) :   1.5995 B(  2-C ,  6-O ) :   1.1309 B(  3-C ,  4-N ) :   1.3064
B(  3-C , 11-H ) :   0.9901 B(  4-N ,  5-C ) :   1.7474 B(  5-C ,  6-O ) :   1.1572
B(  5-C , 12-H ) :   0.9759

FINAL SINGLE POINT ENERGY      -340.086881184657

DIPOLE MOMENT
-------------
                                X             Y             Z
Electronic contribution:      2.89523      -1.79184      -4.18590
Nuclear contribution   :     -3.38461       1.36430       5.21365
                        -----------------------------------------
Total Dipole Moment    :     -0.48938      -0.42754       1.02775
                        -----------------------------------------
Magnitude (a.u.)       :      1.21596
Magnitude (Debye)      :      3.09071

                             ****ORCA TERMINATED NORMALLY****
TOTAL RUN TIME: 0 days 0 hours 0 minutes 6 seconds 294 msec
