                         Program Version 3.0.3 - RELEASE   -
|  1> ! RI PBE def2-SVP def2-SVP/J NBO PAL2
|  2> % maxcore 2000
|  3> % output
|  4>     # printlevel mini
|  5>     print[ P_Basis ] 0
|  6>     print[ P_SCFInfo ] 1
|  7>     print[ P_SCFIterInfo ] 1
|  8>     print[ P_OrbEn ] 0
|  9>     print[ P_Cartesian ] 0
| 10> end
| 11> *xyz 0 1
| 12>  N        1.0289240000    -0.0905810000     0.0831110000
| 13>  C        2.1795490000    -0.0346110000     0.0859930000
| 14>  C        3.5830910000     0.0725210000     0.0893850000
| 15>  C        4.4342740000     1.1300480000     0.0879610000
| 16>  N        5.7226060000     0.6609920000     0.0930790000
| 17>  C        5.5968820000    -0.6218450000     0.0972160000
| 18>  O        4.3331220000    -1.0654510000     0.0953800000
| 19>  H        4.1955650000     2.1813970000     0.0836390000
| 20>  H        6.3750980000    -1.3693710000     0.1019250000
| 21> *
| 22>
| 23>                          ****END OF INPUT****
 Total Charge           Charge          ....    0
 Multiplicity           Mult            ....    1
 Number of Electrons    NEL             ....   48
 Basis Dimension        Dim             ....  108

MULLIKEN ATOMIC CHARGES
-----------------------
   0 N :    0.113897
   1 C :   -0.066469
   2 C :   -0.077061
   3 C :    0.033601
   4 N :   -0.093957
   5 C :    0.156384
   6 O :   -0.132307
   7 H :    0.021798
   8 H :    0.044113
Sum of atomic charges:   -0.0000000

LOEWDIN ATOMIC CHARGES
----------------------
   0 N :   -0.021430
   1 C :   -0.048873
   2 C :   -0.043594
   3 C :    0.003946
   4 N :   -0.074483
   5 C :    0.058145
   6 O :    0.056494
   7 H :    0.038393
   8 H :    0.031402

  Mayer bond orders larger than 0.1
B(  0-N ,  1-C ) :   2.9849 B(  1-C ,  2-C ) :   1.1056 B(  2-C ,  3-C ) :   1.5385
B(  2-C ,  5-C ) :   0.1133 B(  2-C ,  6-O ) :   1.1608 B(  3-C ,  4-N ) :   1.3530
B(  3-C ,  7-H ) :   1.0008 B(  4-N ,  5-C ) :   1.7012 B(  5-C ,  6-O ) :   1.1888
B(  5-C ,  8-H ) :   0.9746

FINAL SINGLE POINT ENERGY      -337.680541181202

DIPOLE MOMENT
-------------
                                X             Y             Z
Electronic contribution:     -1.65535      -0.90446      -0.00135
Nuclear contribution   :      2.65330       0.78315       0.00437
                        -----------------------------------------
Total Dipole Moment    :      0.99795      -0.12131       0.00302
                        -----------------------------------------
Magnitude (a.u.)       :      1.00530
Magnitude (Debye)      :      2.55527

                             ****ORCA TERMINATED NORMALLY****
TOTAL RUN TIME: 0 days 0 hours 0 minutes 5 seconds 94 msec
