                         Program Version 3.0.3 - RELEASE   -
|  1> ! RI PBE def2-SVP def2-SVP/J NBO PAL2
|  2> % maxcore 2000
|  3> % output
|  4>     # printlevel mini
|  5>     print[ P_Basis ] 0
|  6>     print[ P_SCFInfo ] 1
|  7>     print[ P_SCFIterInfo ] 1
|  8>     print[ P_OrbEn ] 0
|  9>     print[ P_Cartesian ] 0
| 10> end
| 11> *xyz 0 1
| 12>  N        1.5525250000    -1.1346810000    -0.6655480000
| 13>  C        2.0382540000    -0.1473030000     0.2861330000
| 14>  C        3.1119620000     0.7157490000    -0.3339420000
| 15>  C        4.2013140000    -0.0008340000    -1.0867270000
| 16>  N        4.7279850000    -1.1098480000    -0.3043910000
| 17>  C        2.8481370000     2.1135690000    -0.6524320000
| 18>  O        3.5594690000     1.7646800000     0.5272370000
| 19>  H        0.6958350000    -1.5524190000    -0.3267500000
| 20>  H        2.2368710000    -1.8800890000    -0.7347800000
| 21>  H        2.4559190000    -0.5884140000     1.2020380000
| 22>  H        1.2111390000     0.4986770000     0.5899790000
| 23>  H        4.9542810000     0.7452580000    -1.3773440000
| 24>  H        3.7661570000    -0.4060880000    -2.0049130000
| 25>  H        5.1948620000    -0.7620380000     0.5248960000
| 26>  H        5.4165540000    -1.6253450000    -0.8369320000
| 27>  H        1.8501000000     2.5149500000    -0.4934460000
| 28>  H        3.4375230000     2.6174800000    -1.4159770000
| 29> *
| 30>
| 31>                          ****END OF INPUT****
 Total Charge           Charge          ....    0
 Multiplicity           Mult            ....    1
 Number of Electrons    NEL             ....   56
 Basis Dimension        Dim             ....  148

MULLIKEN ATOMIC CHARGES
-----------------------
   0 N :   -0.217838
   1 C :    0.208743
   2 C :   -0.222336
   3 C :    0.185790
   4 N :   -0.220843
   5 C :    0.176093
   6 O :   -0.299676
   7 H :    0.086834
   8 H :    0.094608
   9 H :   -0.005842
  10 H :   -0.015392
  11 H :   -0.015838
  12 H :    0.019058
  13 H :    0.098396
  14 H :    0.093587
  15 H :    0.019577
  16 H :    0.015077
Sum of atomic charges:   -0.0000000

LOEWDIN ATOMIC CHARGES
----------------------
   0 N :   -0.111786
   1 C :    0.010362
   2 C :   -0.000261
   3 C :    0.004541
   4 N :   -0.105921
   5 C :    0.061320
   6 O :   -0.161699
   7 H :    0.053161
   8 H :    0.048584
   9 H :    0.006463
  10 H :    0.022160
  11 H :    0.008327
  12 H :    0.028196
  13 H :    0.056977
  14 H :    0.055061
  15 H :    0.013688
  16 H :    0.010827

  Mayer bond orders larger than 0.1
B(  0-N ,  1-C ) :   1.1087 B(  0-N ,  7-H ) :   0.9618 B(  0-N ,  8-H ) :   0.9550
B(  1-C ,  2-C ) :   1.0063 B(  1-C ,  9-H ) :   0.9073 B(  1-C , 10-H ) :   0.9090
B(  2-C ,  3-C ) :   1.0479 B(  2-C ,  5-C ) :   1.0941 B(  2-C ,  6-O ) :   0.9368
B(  3-C ,  4-N ) :   1.0913 B(  3-C , 11-H ) :   0.8991 B(  3-C , 12-H ) :   0.9151
B(  4-N , 13-H ) :   0.9643 B(  4-N , 14-H ) :   0.9638 B(  5-C ,  6-O ) :   1.0132
B(  5-C , 15-H ) :   0.9194 B(  5-C , 16-H ) :   0.9274

FINAL SINGLE POINT ENERGY      -342.441893921398

DIPOLE MOMENT
-------------
                                X             Y             Z
Electronic contribution:      0.57985       2.58994       1.41563
Nuclear contribution   :     -0.36676      -3.02744      -1.66570
                        -----------------------------------------
Total Dipole Moment    :      0.21310      -0.43750      -0.25008
                        -----------------------------------------
Magnitude (a.u.)       :      0.54713
Magnitude (Debye)      :      1.39071

                             ****ORCA TERMINATED NORMALLY****
TOTAL RUN TIME: 0 days 0 hours 0 minutes 7 seconds 612 msec
