                         Program Version 3.0.3 - RELEASE   -
|  1> ! RI PBE def2-SVP def2-SVP/J NBO PAL2
|  2> % maxcore 2000
|  3> % output
|  4>     # printlevel mini
|  5>     print[ P_Basis ] 0
|  6>     print[ P_SCFInfo ] 1
|  7>     print[ P_SCFIterInfo ] 1
|  8>     print[ P_OrbEn ] 0
|  9>     print[ P_Cartesian ] 0
| 10> end
| 11> *xyz 0 1
| 12>  N        1.0065860000    -0.1675610000     0.0960670000
| 13>  C        2.4264650000    -0.2020870000    -0.2127750000
| 14>  C        2.8459550000     1.0481660000    -0.9079450000
| 15>  C        2.2174990000     2.2475680000    -0.9464600000
| 16>  O        2.9199750000     3.1229610000    -1.6710000000
| 17>  N        4.0541470000     2.5130340000    -2.1377680000
| 18>  C        4.0057330000     1.2914070000    -1.6887820000
| 19>  H        0.7484260000    -0.9560250000     0.6746430000
| 20>  H        0.4591250000    -0.2248740000    -0.7543350000
| 21>  H        2.7346440000    -1.0661140000    -0.8216330000
| 22>  H        2.9710690000    -0.2889090000     0.7339630000
| 23>  H        1.2949350000     2.6030410000    -0.5170120000
| 24>  H        4.8083420000     0.6109940000    -1.9381540000
| 25> *
| 26>
| 27>                          ****END OF INPUT****
 Total Charge           Charge          ....    0
 Multiplicity           Mult            ....    1
 Number of Electrons    NEL             ....   52
 Basis Dimension        Dim             ....  128

MULLIKEN ATOMIC CHARGES
-----------------------
   0 N :   -0.217350
   1 C :    0.198496
   2 C :   -0.200967
   3 C :    0.135981
   4 O :   -0.145540
   5 N :   -0.024566
   6 C :    0.014475
   7 H :    0.093246
   8 H :    0.095166
   9 H :   -0.001925
  10 H :    0.025280
  11 H :    0.021978
  12 H :    0.005726
Sum of atomic charges:    0.0000000

LOEWDIN ATOMIC CHARGES
----------------------
   0 N :   -0.104692
   1 C :    0.017381
   2 C :   -0.117004
   3 C :    0.027218
   4 O :    0.045047
   5 N :   -0.037323
   6 C :   -0.045524
   7 H :    0.056102
   8 H :    0.054687
   9 H :    0.010192
  10 H :    0.036364
  11 H :    0.028527
  12 H :    0.029023

  Mayer bond orders larger than 0.1
B(  0-N ,  1-C ) :   1.1225 B(  0-N ,  7-H ) :   0.9620 B(  0-N ,  8-H ) :   0.9689
B(  1-C ,  2-C ) :   1.0439 B(  1-C ,  9-H ) :   0.9172 B(  1-C , 10-H ) :   0.9043
B(  2-C ,  3-C ) :   1.5486 B(  2-C ,  6-C ) :   1.2336 B(  3-C ,  4-O ) :   1.1735
B(  3-C ,  5-N ) :   0.1260 B(  3-C , 11-H ) :   0.9789 B(  4-O ,  5-N ) :   1.0276
B(  5-N ,  6-C ) :   1.6791 B(  6-C , 12-H ) :   0.9839

FINAL SINGLE POINT ENERGY      -340.048636322110

DIPOLE MOMENT
-------------
                                X             Y             Z
Electronic contribution:      2.60122       5.81432      -2.96816
Nuclear contribution   :     -3.21086      -7.15365       3.44578
                        -----------------------------------------
Total Dipole Moment    :     -0.60963      -1.33934       0.47762
                        -----------------------------------------
Magnitude (a.u.)       :      1.54713
Magnitude (Debye)      :      3.93248

                             ****ORCA TERMINATED NORMALLY****
TOTAL RUN TIME: 0 days 0 hours 0 minutes 5 seconds 484 msec
