                         Program Version 3.0.3 - RELEASE   -
|  1> ! RI PBE def2-SVP def2-SVP/J NBO PAL2
|  2> % maxcore 2000
|  3> % output
|  4>     # printlevel mini
|  5>     print[ P_Basis ] 0
|  6>     print[ P_SCFInfo ] 1
|  7>     print[ P_SCFIterInfo ] 1
|  8>     print[ P_OrbEn ] 0
|  9>     print[ P_Cartesian ] 0
| 10> end
| 11> *xyz 0 1
| 12>  N        0.9831170000     0.0785380000     0.0505810000
| 13>  C        2.1345210000     0.0854680000     0.0527370000
| 14>  C        3.5464710000     0.0772720000     0.0553120000
| 15>  C        4.3966750000     1.1392010000     0.0570440000
| 16>  O        5.6489640000     0.7143430000     0.0592540000
| 17>  N        5.6714540000    -0.6623050000     0.0590620000
| 18>  C        4.4300900000    -1.0386650000     0.0567490000
| 19>  H        4.2375740000     2.2061760000     0.0569330000
| 20>  H        4.1827350000    -2.0898270000     0.0561270000
| 21> *
| 22>
| 23>                          ****END OF INPUT****
 Total Charge           Charge          ....    0
 Multiplicity           Mult            ....    1
 Number of Electrons    NEL             ....   48
 Basis Dimension        Dim             ....  108

MULLIKEN ATOMIC CHARGES
-----------------------
   0 N :    0.106071
   1 C :   -0.097387
   2 C :   -0.225451
   3 C :    0.178532
   4 O :   -0.120672
   5 N :    0.001390
   6 C :    0.075033
   7 H :    0.049057
   8 H :    0.033427
Sum of atomic charges:   -0.0000000

LOEWDIN ATOMIC CHARGES
----------------------
   0 N :   -0.036676
   1 C :   -0.038437
   2 C :   -0.139506
   3 C :    0.072432
   4 O :    0.070154
   5 N :   -0.011099
   6 C :   -0.005637
   7 H :    0.043398
   8 H :    0.045372

  Mayer bond orders larger than 0.1
B(  0-N ,  1-C ) :   2.9998 B(  1-C ,  2-C ) :   1.1301 B(  2-C ,  3-C ) :   1.4889
B(  2-C ,  6-C ) :   1.2131 B(  3-C ,  4-O ) :   1.2203 B(  3-C ,  5-N ) :   0.1151
B(  3-C ,  7-H ) :   0.9885 B(  4-O ,  5-N ) :   1.0098 B(  5-N ,  6-C ) :   1.6985
B(  6-C ,  8-H ) :   0.9884

FINAL SINGLE POINT ENERGY      -337.645199605780

DIPOLE MOMENT
-------------
                                X             Y             Z
Electronic contribution:     -0.07760       0.30192      -0.00008
Nuclear contribution   :      0.61276      -0.01556       0.00115
                        -----------------------------------------
Total Dipole Moment    :      0.53516       0.28636       0.00107
                        -----------------------------------------
Magnitude (a.u.)       :      0.60696
Magnitude (Debye)      :      1.54276

                             ****ORCA TERMINATED NORMALLY****
TOTAL RUN TIME: 0 days 0 hours 0 minutes 4 seconds 923 msec
