                         Program Version 3.0.3 - RELEASE   -
|  1> ! RI PBE def2-SVP def2-SVP/J NBO PAL2
|  2> % maxcore 2000
|  3> % output
|  4>     # printlevel mini
|  5>     print[ P_Basis ] 0
|  6>     print[ P_SCFInfo ] 1
|  7>     print[ P_SCFIterInfo ] 1
|  8>     print[ P_OrbEn ] 0
|  9>     print[ P_Cartesian ] 0
| 10> end
| 11> *xyz 0 1
| 12>  N        2.9964100000    -0.7138320000     0.8600850000
| 13>  C        2.3870860000     0.1112150000    -0.1775570000
| 14>  C        3.2401940000     1.3181810000    -0.4378180000
| 15>  C        2.6675420000     2.5873750000    -0.9895440000
| 16>  O        1.3127890000     2.6012260000    -1.3072060000
| 17>  C        3.1059340000     2.5406990000     0.4338150000
| 18>  O        4.2236640000     3.2917870000     0.7814120000
| 19>  H        2.4628120000    -1.5642430000     0.9920550000
| 20>  H        2.9802730000    -0.2209230000     1.7454670000
| 21>  H        1.3626730000     0.4357170000     0.0474860000
| 22>  H        2.3285420000    -0.4879370000    -1.0916120000
| 23>  H        4.2521110000     1.0971100000    -0.7633270000
| 24>  H        3.3150420000     3.1489720000    -1.6598570000
| 25>  H        0.9751280000     3.4852830000    -1.1390930000
| 26>  H        2.3031710000     2.5169030000     1.1714750000
| 27>  H        4.7965400000     2.7472680000     1.3281290000
| 28> *
| 29>
| 30>                          ****END OF INPUT****
 Total Charge           Charge          ....    0
 Multiplicity           Mult            ....    1
 Number of Electrons    NEL             ....   56
 Basis Dimension        Dim             ....  143

MULLIKEN ATOMIC CHARGES
-----------------------
   0 N :   -0.215175
   1 C :    0.163264
   2 C :   -0.140882
   3 C :    0.083620
   4 O :   -0.229643
   5 C :    0.041395
   6 O :   -0.229982
   7 H :    0.088195
   8 H :    0.078580
   9 H :   -0.011574
  10 H :    0.013665
  11 H :    0.018860
  12 H :    0.013461
  13 H :    0.162236
  14 H :    0.002566
  15 H :    0.161415
Sum of atomic charges:   -0.0000000

LOEWDIN ATOMIC CHARGES
----------------------
   0 N :   -0.114810
   1 C :    0.015999
   2 C :   -0.067266
   3 C :    0.027591
   4 O :   -0.094696
   5 C :    0.006037
   6 O :   -0.098560
   7 H :    0.051702
   8 H :    0.045787
   9 H :    0.002099
  10 H :    0.026451
  11 H :    0.030172
  12 H :    0.012914
  13 H :    0.077001
  14 H :    0.005140
  15 H :    0.074437

  Mayer bond orders larger than 0.1
B(  0-N ,  1-C ) :   1.0892 B(  0-N ,  7-H ) :   0.9636 B(  0-N ,  8-H ) :   0.9708
B(  1-C ,  2-C ) :   1.0744 B(  1-C ,  9-H ) :   0.9146 B(  1-C , 10-H ) :   0.9224
B(  2-C ,  3-C ) :   0.9212 B(  2-C ,  5-C ) :   0.9228 B(  2-C , 11-H ) :   0.9228
B(  3-C ,  4-O ) :   1.1315 B(  3-C ,  5-C ) :   0.9270 B(  3-C , 12-H ) :   0.9317
B(  4-O , 13-H ) :   0.9784 B(  5-C ,  6-O ) :   1.1363 B(  5-C , 14-H ) :   0.9300
B(  6-O , 15-H ) :   0.9792

FINAL SINGLE POINT ENERGY      -362.281727791662

DIPOLE MOMENT
-------------
                                X             Y             Z
Electronic contribution:      0.43305       3.76092      -0.84219
Nuclear contribution   :     -0.70312      -3.77893       1.39407
                        -----------------------------------------
Total Dipole Moment    :     -0.27007      -0.01801       0.55188
                        -----------------------------------------
Magnitude (a.u.)       :      0.61468
Magnitude (Debye)      :      1.56240

                             ****ORCA TERMINATED NORMALLY****
TOTAL RUN TIME: 0 days 0 hours 0 minutes 6 seconds 529 msec
