                         Program Version 3.0.3 - RELEASE   -
|  1> ! RI PBE def2-SVP def2-SVP/J NBO PAL2
|  2> % maxcore 2000
|  3> % output
|  4>     # printlevel mini
|  5>     print[ P_Basis ] 0
|  6>     print[ P_SCFInfo ] 1
|  7>     print[ P_SCFIterInfo ] 1
|  8>     print[ P_OrbEn ] 0
|  9>     print[ P_Cartesian ] 0
| 10> end
| 11> *xyz 0 1
| 12>  N        3.1669660000    -1.0972780000    -0.4466950000
| 13>  C        2.3645920000     0.0250370000    -0.0030920000
| 14>  C        2.9378390000     1.3062180000    -0.5755070000
| 15>  C        2.4034810000     2.6463870000    -0.0745580000
| 16>  O        3.7094750000     2.9780280000     0.4776270000
| 17>  C        4.2254280000     1.7831180000     0.0763620000
| 18>  O        5.3176560000     1.3625240000     0.2702130000
| 19>  H        2.8064340000    -1.9679470000    -0.0795800000
| 20>  H        4.1214640000    -0.9984300000    -0.1200520000
| 21>  H        2.2909790000     0.1300850000     1.0921470000
| 22>  H        1.3443160000    -0.1025400000    -0.3789280000
| 23>  H        3.0313360000     1.2250370000    -1.6601780000
| 24>  H        1.6576320000     2.5931110000     0.7199030000
| 25>  H        2.1100920000     3.3703520000    -0.8339720000
| 26> *
| 27>
| 28>                          ****END OF INPUT****
 Total Charge           Charge          ....    0
 Multiplicity           Mult            ....    1
 Number of Electrons    NEL             ....   54
 Basis Dimension        Dim             ....  133

MULLIKEN ATOMIC CHARGES
-----------------------
   0 N :   -0.217421
   1 C :    0.161601
   2 C :   -0.309160
   3 C :    0.247372
   4 O :   -0.255855
   5 C :    0.175360
   6 O :   -0.137504
   7 H :    0.093008
   8 H :    0.103177
   9 H :   -0.003257
  10 H :    0.014862
  11 H :    0.059498
  12 H :    0.029575
  13 H :    0.038745
Sum of atomic charges:    0.0000000

LOEWDIN ATOMIC CHARGES
----------------------
   0 N :   -0.107413
   1 C :    0.020422
   2 C :   -0.085796
   3 C :    0.096365
   4 O :   -0.080577
   5 C :    0.036373
   6 O :   -0.112351
   7 H :    0.056646
   8 H :    0.055283
   9 H :    0.002887
  10 H :    0.024612
  11 H :    0.047501
  12 H :    0.021750
  13 H :    0.024296

  Mayer bond orders larger than 0.1
B(  0-N ,  1-C ) :   1.0980 B(  0-N ,  7-H ) :   0.9620 B(  0-N ,  8-H ) :   0.9616
B(  1-C ,  2-C ) :   1.0435 B(  1-C ,  9-H ) :   0.9166 B(  1-C , 10-H ) :   0.9267
B(  2-C ,  3-C ) :   1.0521 B(  2-C ,  5-C ) :   0.9260 B(  2-C , 11-H ) :   0.8922
B(  3-C ,  4-O ) :   0.9826 B(  3-C , 12-H ) :   0.9344 B(  3-C , 13-H ) :   0.9362
B(  4-O ,  5-C ) :   1.1378 B(  4-O ,  6-O ) :   0.1159 B(  5-C ,  6-O ) :   2.1834

FINAL SINGLE POINT ENERGY      -361.130329181773

DIPOLE MOMENT
-------------
                                X             Y             Z
Electronic contribution:      5.04735       4.01505       0.97436
Nuclear contribution   :     -6.38920      -4.28420      -1.01147
                        -----------------------------------------
Total Dipole Moment    :     -1.34186      -0.26915      -0.03711
                        -----------------------------------------
Magnitude (a.u.)       :      1.36909
Magnitude (Debye)      :      3.47994

                             ****ORCA TERMINATED NORMALLY****
TOTAL RUN TIME: 0 days 0 hours 0 minutes 6 seconds 869 msec
