                         Program Version 3.0.3 - RELEASE   -
|  1> ! RI PBE def2-SVP def2-SVP/J NBO PAL2
|  2> % maxcore 2000
|  3> % output
|  4>     # printlevel mini
|  5>     print[ P_Basis ] 0
|  6>     print[ P_SCFInfo ] 1
|  7>     print[ P_SCFIterInfo ] 1
|  8>     print[ P_OrbEn ] 0
|  9>     print[ P_Cartesian ] 0
| 10> end
| 11> *xyz 0 1
| 12>  N        1.0614980000    -0.0736820000     0.2242210000
| 13>  C        2.2071360000    -0.0831100000     0.0830210000
| 14>  C        3.6035020000    -0.0526890000    -0.0872520000
| 15>  C        4.3985180000    -1.1151790000    -0.2610490000
| 16>  O        5.6959250000    -0.8401150000    -0.4010770000
| 17>  C        5.8544670000     0.5969960000    -0.3214060000
| 18>  C        4.4550640000     1.1940170000    -0.1017600000
| 19>  H        4.1314630000    -2.1623560000    -0.3026780000
| 20>  H        6.3153710000     0.9227500000    -1.2545170000
| 21>  H        6.5397370000     0.8007780000     0.5019760000
| 22>  H        4.1634530000     1.8742930000    -0.9052090000
| 23>  H        4.3815770000     1.7448070000     0.8388300000
| 24> *
| 25>
| 26>                          ****END OF INPUT****
 Total Charge           Charge          ....    0
 Multiplicity           Mult            ....    1
 Number of Electrons    NEL             ....   50
 Basis Dimension        Dim             ....  123

MULLIKEN ATOMIC CHARGES
-----------------------
   0 N :    0.067740
   1 C :   -0.131384
   2 C :   -0.323008
   3 C :    0.184680
   4 O :   -0.254594
   5 C :    0.173204
   6 C :    0.078684
   7 H :    0.020984
   8 H :    0.042768
   9 H :    0.045889
  10 H :    0.048558
  11 H :    0.046479
Sum of atomic charges:    0.0000000

LOEWDIN ATOMIC CHARGES
----------------------
   0 N :   -0.071160
   1 C :   -0.050084
   2 C :   -0.150536
   3 C :    0.081566
   4 O :   -0.056128
   5 C :    0.094739
   6 C :   -0.024350
   7 H :    0.036133
   8 H :    0.028839
   9 H :    0.029513
  10 H :    0.040995
  11 H :    0.040474

  Mayer bond orders larger than 0.1
B(  0-N ,  1-C ) :   2.9593 B(  1-C ,  2-C ) :   1.2315 B(  2-C ,  3-C ) :   1.6331
B(  2-C ,  4-O ) :   0.1292 B(  2-C ,  6-C ) :   1.0543 B(  3-C ,  4-O ) :   1.1746
B(  3-C ,  7-H ) :   0.9941 B(  4-O ,  5-C ) :   0.9418 B(  5-C ,  6-C ) :   1.0924
B(  5-C ,  8-H ) :   0.9462 B(  5-C ,  9-H ) :   0.9465 B(  6-C , 10-H ) :   0.9189
B(  6-C , 11-H ) :   0.9193

FINAL SINGLE POINT ENERGY      -322.844817345159

DIPOLE MOMENT
-------------
                                X             Y             Z
Electronic contribution:     -3.63353      -2.84342       0.24682
Nuclear contribution   :      5.30853       3.20767      -0.42902
                        -----------------------------------------
Total Dipole Moment    :      1.67500       0.36425      -0.18220
                        -----------------------------------------
Magnitude (a.u.)       :      1.72380
Magnitude (Debye)      :      4.38156

                             ****ORCA TERMINATED NORMALLY****
TOTAL RUN TIME: 0 days 0 hours 0 minutes 6 seconds 178 msec
