                         Program Version 3.0.3 - RELEASE   -
|  1> ! RI PBE def2-SVP def2-SVP/J NBO PAL2
|  2> % maxcore 2000
|  3> % output
|  4>     # printlevel mini
|  5>     print[ P_Basis ] 0
|  6>     print[ P_SCFInfo ] 1
|  7>     print[ P_SCFIterInfo ] 1
|  8>     print[ P_OrbEn ] 0
|  9>     print[ P_Cartesian ] 0
| 10> end
| 11> *xyz 0 1
| 12>  N        0.9324810000    -0.0084520000    -0.1886510000
| 13>  C        2.0811360000    -0.0013420000    -0.1349550000
| 14>  C        3.5417790000     0.0024130000    -0.0681530000
| 15>  C        4.1298210000    -1.2523780000     0.6216790000
| 16>  O        4.5957270000    -0.8338170000     1.9092870000
| 17>  C        4.6090610000     0.5172380000     1.9015040000
| 18>  C        4.0730880000     1.0934830000     0.8334770000
| 19>  H        3.9106580000     0.0843160000    -1.0947440000
| 20>  H        4.9869620000    -1.6268000000     0.0568010000
| 21>  H        3.4038260000    -2.0520270000     0.7583910000
| 22>  H        5.0472640000     0.9735410000     2.7783570000
| 23>  H        3.9590970000     2.1502250000     0.6556070000
| 24> *
| 25>
| 26>                          ****END OF INPUT****
 Total Charge           Charge          ....    0
 Multiplicity           Mult            ....    1
 Number of Electrons    NEL             ....   50
 Basis Dimension        Dim             ....  123

MULLIKEN ATOMIC CHARGES
-----------------------
   0 N :    0.062303
   1 C :   -0.152378
   2 C :   -0.180045
   3 C :    0.269227
   4 O :   -0.275146
   5 C :    0.152027
   6 C :   -0.067397
   7 H :    0.063212
   8 H :    0.035802
   9 H :    0.047515
  10 H :    0.024249
  11 H :    0.020632
Sum of atomic charges:   -0.0000000

LOEWDIN ATOMIC CHARGES
----------------------
   0 N :   -0.062323
   1 C :   -0.040868
   2 C :   -0.066837
   3 C :    0.106296
   4 O :   -0.077701
   5 C :    0.057017
   6 C :   -0.103927
   7 H :    0.059630
   8 H :    0.027815
   9 H :    0.034445
  10 H :    0.030723
  11 H :    0.035730

  Mayer bond orders larger than 0.1
B(  0-N ,  1-C ) :   3.0840 B(  1-C ,  2-C ) :   1.0219 B(  2-C ,  3-C ) :   1.0692
B(  2-C ,  6-C ) :   1.0490 B(  2-C ,  7-H ) :   0.8742 B(  3-C ,  4-O ) :   0.9690
B(  3-C ,  8-H ) :   0.9336 B(  3-C ,  9-H ) :   0.9456 B(  4-O ,  5-C ) :   1.1285
B(  4-O ,  6-C ) :   0.1207 B(  5-C ,  6-C ) :   1.7255 B(  5-C , 10-H ) :   0.9887
B(  6-C , 11-H ) :   0.9917

FINAL SINGLE POINT ENERGY      -322.831028829093

DIPOLE MOMENT
-------------
                                X             Y             Z
Electronic contribution:     -2.39393       0.01749       0.31647
Nuclear contribution   :      3.74119       0.02235      -0.42965
                        -----------------------------------------
Total Dipole Moment    :      1.34726       0.03985      -0.11318
                        -----------------------------------------
Magnitude (a.u.)       :      1.35259
Magnitude (Debye)      :      3.43801

                             ****ORCA TERMINATED NORMALLY****
TOTAL RUN TIME: 0 days 0 hours 0 minutes 6 seconds 33 msec
