                         Program Version 3.0.3 - RELEASE   -
|  1> ! RI PBE def2-SVP def2-SVP/J NBO PAL2
|  2> % maxcore 2000
|  3> % output
|  4>     # printlevel mini
|  5>     print[ P_Basis ] 0
|  6>     print[ P_SCFInfo ] 1
|  7>     print[ P_SCFIterInfo ] 1
|  8>     print[ P_OrbEn ] 0
|  9>     print[ P_Cartesian ] 0
| 10> end
| 11> *xyz 0 1
| 12>  N        3.7074100000     0.1768600000     0.8886190000
| 13>  C        2.6437970000    -0.0684350000    -0.0861510000
| 14>  C        2.9404650000     0.5687240000    -1.3950910000
| 15>  C        3.1441720000    -0.0315270000    -2.5620410000
| 16>  O        3.3998180000     0.7880160000    -3.6132590000
| 17>  C        3.1982020000     2.1302650000    -3.1378050000
| 18>  C        3.1190160000     2.0510510000    -1.6086550000
| 19>  H        3.4600620000    -0.2370860000     1.7797190000
| 20>  H        3.8037600000     1.1718330000     1.0544850000
| 21>  H        1.6573830000     0.2798260000     0.2659500000
| 22>  H        2.5600490000    -1.1494320000    -0.2302410000
| 23>  H        3.1480540000    -1.0880780000    -2.7955410000
| 24>  H        2.2618650000     2.4973740000    -3.5698920000
| 25>  H        4.0198060000     2.7441820000    -3.5073310000
| 26>  H        2.2875170000     2.6436260000    -1.2146860000
| 27>  H        4.0353250000     2.4149920000    -1.1279900000
| 28> *
| 29>
| 30>                          ****END OF INPUT****
 Total Charge           Charge          ....    0
 Multiplicity           Mult            ....    1
 Number of Electrons    NEL             ....   54
 Basis Dimension        Dim             ....  143

MULLIKEN ATOMIC CHARGES
-----------------------
   0 N :   -0.216714
   1 C :    0.179456
   2 C :   -0.231986
   3 C :    0.113856
   4 O :   -0.291048
   5 C :    0.192637
   6 C :    0.023383
   7 H :    0.085295
   8 H :    0.085606
   9 H :   -0.013183
  10 H :   -0.006937
  11 H :   -0.005791
  12 H :    0.018950
  13 H :    0.024458
  14 H :    0.016570
  15 H :    0.025448
Sum of atomic charges:    0.0000000

LOEWDIN ATOMIC CHARGES
----------------------
   0 N :   -0.115532
   1 C :    0.013651
   2 C :   -0.115183
   3 C :    0.033321
   4 O :   -0.097111
   5 C :    0.086538
   6 C :   -0.047562
   7 H :    0.050428
   8 H :    0.046859
   9 H :    0.001794
  10 H :    0.025938
  11 H :    0.021064
  12 H :    0.017769
  13 H :    0.021829
  14 H :    0.029246
  15 H :    0.026952

  Mayer bond orders larger than 0.1
B(  0-N ,  1-C ) :   1.0766 B(  0-N ,  7-H ) :   0.9615 B(  0-N ,  8-H ) :   0.9693
B(  1-C ,  2-C ) :   1.0910 B(  1-C ,  9-H ) :   0.9043 B(  1-C , 10-H ) :   0.9108
B(  2-C ,  3-C ) :   1.7619 B(  2-C ,  4-O ) :   0.1204 B(  2-C ,  6-C ) :   1.0654
B(  3-C ,  4-O ) :   1.1088 B(  3-C , 11-H ) :   0.9871 B(  4-O ,  5-C ) :   0.9672
B(  5-C ,  6-C ) :   1.1120 B(  5-C , 12-H ) :   0.9399 B(  5-C , 13-H ) :   0.9487
B(  6-C , 14-H ) :   0.9159 B(  6-C , 15-H ) :   0.9046

FINAL SINGLE POINT ENERGY      -325.235744231981

DIPOLE MOMENT
-------------
                                X             Y             Z
Electronic contribution:      0.79114      -1.40044      -4.32587
Nuclear contribution   :     -1.22990       1.86137       4.87471
                        -----------------------------------------
Total Dipole Moment    :     -0.43876       0.46094       0.54884
                        -----------------------------------------
Magnitude (a.u.)       :      0.84036
Magnitude (Debye)      :      2.13602

                             ****ORCA TERMINATED NORMALLY****
TOTAL RUN TIME: 0 days 0 hours 0 minutes 7 seconds 636 msec
