                         Program Version 3.0.3 - RELEASE   -
|  1> ! RI PBE def2-SVP def2-SVP/J NBO PAL2
|  2> % maxcore 2000
|  3> % output
|  4>     # printlevel mini
|  5>     print[ P_Basis ] 0
|  6>     print[ P_SCFInfo ] 1
|  7>     print[ P_SCFIterInfo ] 1
|  8>     print[ P_OrbEn ] 0
|  9>     print[ P_Cartesian ] 0
| 10> end
| 11> *xyz 0 1
| 12>  N        1.5416240000     0.9819640000    -1.1347390000
| 13>  C        2.2300010000     0.0971590000    -0.1938410000
| 14>  C        2.9924150000    -0.9748870000    -0.9299170000
| 15>  C        4.0734040000    -0.4710040000    -1.8563700000
| 16>  O        3.5810460000     0.2663970000    -2.9475850000
| 17>  C        3.2430440000    -2.2652680000    -0.2139970000
| 18>  C        2.2455650000    -2.2128210000    -1.3323630000
| 19>  H        1.1475650000     1.7839960000    -0.6600960000
| 20>  H        0.7786880000     0.4893260000    -1.5845490000
| 21>  H        1.5515470000    -0.3731230000     0.5333970000
| 22>  H        2.9353290000     0.7097960000     0.3784360000
| 23>  H        4.6286860000    -1.3208160000    -2.2656000000
| 24>  H        4.7882710000     0.1284310000    -1.2680940000
| 25>  H        2.8991920000     0.8538040000    -2.5799260000
| 26>  H        2.8687330000    -2.3697240000     0.7978960000
| 27>  H        4.1862230000    -2.7672230000    -0.3943190000
| 28>  H        1.1955170000    -2.2884630000    -1.0720910000
| 29>  H        2.5073520000    -2.6705340000    -2.2783330000
| 30> *
| 31>
| 32>                          ****END OF INPUT****
 Total Charge           Charge          ....    0
 Multiplicity           Mult            ....    1
 Number of Electrons    NEL             ....   56
 Basis Dimension        Dim             ....  153

MULLIKEN ATOMIC CHARGES
-----------------------
   0 N :   -0.217562
   1 C :    0.185058
   2 C :   -0.392128
   3 C :    0.327763
   4 O :   -0.297962
   5 C :    0.001714
   6 C :    0.009203
   7 H :    0.100944
   8 H :    0.103909
   9 H :   -0.014426
  10 H :    0.007844
  11 H :   -0.024351
  12 H :   -0.021597
  13 H :    0.129846
  14 H :    0.016480
  15 H :    0.031042
  16 H :    0.019718
  17 H :    0.034506
Sum of atomic charges:    0.0000000

LOEWDIN ATOMIC CHARGES
----------------------
   0 N :   -0.075528
   1 C :    0.022875
   2 C :   -0.090283
   3 C :    0.070316
   4 O :   -0.138233
   5 C :   -0.034964
   6 C :   -0.039472
   7 H :    0.058332
   8 H :    0.058663
   9 H :    0.004380
  10 H :    0.024046
  11 H :    0.013587
  12 H :   -0.000190
  13 H :    0.026585
  14 H :    0.022152
  15 H :    0.027263
  16 H :    0.021207
  17 H :    0.029264

  Mayer bond orders larger than 0.1
B(  0-N ,  1-C ) :   1.0775 B(  0-N ,  7-H ) :   0.9601 B(  0-N ,  8-H ) :   0.9591
B(  0-N , 13-H ) :   0.1489 B(  1-C ,  2-C ) :   1.0588 B(  1-C ,  9-H ) :   0.9176
B(  1-C , 10-H ) :   0.9221 B(  2-C ,  3-C ) :   1.0300 B(  2-C ,  5-C ) :   0.9721
B(  2-C ,  6-C ) :   0.9556 B(  3-C ,  4-O ) :   1.1113 B(  3-C , 11-H ) :   0.9109
B(  3-C , 12-H ) :   0.9162 B(  4-O , 13-H ) :   0.9388 B(  5-C ,  6-C ) :   1.0450
B(  5-C , 14-H ) :   0.9329 B(  5-C , 15-H ) :   0.9400 B(  6-C , 16-H ) :   0.9421
B(  6-C , 17-H ) :   0.9438

FINAL SINGLE POINT ENERGY      -326.435418988026

DIPOLE MOMENT
-------------
                                X             Y             Z
Electronic contribution:      0.69671       1.28548      -2.30334
Nuclear contribution   :     -1.53055      -1.21243       3.27403
                        -----------------------------------------
Total Dipole Moment    :     -0.83384       0.07304       0.97069
                        -----------------------------------------
Magnitude (a.u.)       :      1.28174
Magnitude (Debye)      :      3.25793

                             ****ORCA TERMINATED NORMALLY****
TOTAL RUN TIME: 0 days 0 hours 0 minutes 8 seconds 131 msec
