                         Program Version 3.0.3 - RELEASE   -
|  1> ! RI PBE def2-SVP def2-SVP/J NBO PAL2
|  2> % maxcore 2000
|  3> % output
|  4>     # printlevel mini
|  5>     print[ P_Basis ] 0
|  6>     print[ P_SCFInfo ] 1
|  7>     print[ P_SCFIterInfo ] 1
|  8>     print[ P_OrbEn ] 0
|  9>     print[ P_Cartesian ] 0
| 10> end
| 11> *xyz 0 1
| 12>  N        3.4472340000     0.3283450000    -1.1141080000
| 13>  C        2.5818740000    -0.1624440000    -0.0551930000
| 14>  C        2.9962720000     0.4177700000     1.2901320000
| 15>  C        2.1293370000    -0.0995760000     2.4512050000
| 16>  O        1.7685160000     1.0345340000     3.2553210000
| 17>  C        2.1186580000     2.1364000000     2.5424450000
| 18>  C        2.7962440000     1.9018210000     1.4269960000
| 19>  H        3.1155940000     0.0239550000    -2.0201850000
| 20>  H        4.3851300000    -0.0387880000    -1.0041940000
| 21>  H        2.5598650000    -1.2625110000     0.0261390000
| 22>  H        1.5584870000     0.1606620000    -0.2711600000
| 23>  H        4.0539490000     0.1611080000     1.4512090000
| 24>  H        2.6358180000    -0.8202710000     3.0939500000
| 25>  H        1.2036060000    -0.5531440000     2.0768130000
| 26>  H        1.8080440000     3.0748050000     2.9814880000
| 27>  H        3.1709820000     2.6379440000     0.7340430000
| 28> *
| 29>
| 30>                          ****END OF INPUT****
 Total Charge           Charge          ....    0
 Multiplicity           Mult            ....    1
 Number of Electrons    NEL             ....   54
 Basis Dimension        Dim             ....  143

MULLIKEN ATOMIC CHARGES
-----------------------
   0 N :   -0.202095
   1 C :    0.104399
   2 C :   -0.174536
   3 C :    0.279131
   4 O :   -0.296492
   5 C :    0.130744
   6 C :   -0.056408
   7 H :    0.088584
   8 H :    0.087387
   9 H :   -0.000939
  10 H :   -0.001308
  11 H :    0.013738
  12 H :    0.019602
  13 H :    0.007537
  14 H :    0.003357
  15 H :   -0.002701
Sum of atomic charges:    0.0000000

LOEWDIN ATOMIC CHARGES
----------------------
   0 N :   -0.108321
   1 C :    0.008584
   2 C :   -0.055948
   3 C :    0.090479
   4 O :   -0.097465
   5 C :    0.037489
   6 C :   -0.105621
   7 H :    0.053929
   8 H :    0.050350
   9 H :   -0.002103
  10 H :    0.018892
  11 H :    0.024282
  12 H :    0.021063
  13 H :    0.016520
  14 H :    0.020489
  15 H :    0.027382

  Mayer bond orders larger than 0.1
B(  0-N ,  1-C ) :   1.1003 B(  0-N ,  7-H ) :   0.9649 B(  0-N ,  8-H ) :   0.9662
B(  1-C ,  2-C ) :   1.0449 B(  1-C ,  9-H ) :   0.9317 B(  1-C , 10-H ) :   0.9178
B(  2-C ,  3-C ) :   1.0606 B(  2-C ,  6-C ) :   1.0273 B(  2-C , 11-H ) :   0.8877
B(  3-C ,  4-O ) :   0.9719 B(  3-C , 12-H ) :   0.9389 B(  3-C , 13-H ) :   0.9308
B(  4-O ,  5-C ) :   1.1093 B(  4-O ,  6-C ) :   0.1184 B(  5-C ,  6-C ) :   1.7343
B(  5-C , 14-H ) :   0.9886 B(  6-C , 15-H ) :   0.9950

FINAL SINGLE POINT ENERGY      -325.235042255776

DIPOLE MOMENT
-------------
                                X             Y             Z
Electronic contribution:     -1.18751       2.58453       4.37930
Nuclear contribution   :      1.43225      -3.20623      -4.90021
                        -----------------------------------------
Total Dipole Moment    :      0.24474      -0.62170      -0.52091
                        -----------------------------------------
Magnitude (a.u.)       :      0.84720
Magnitude (Debye)      :      2.15341

                             ****ORCA TERMINATED NORMALLY****
TOTAL RUN TIME: 0 days 0 hours 0 minutes 7 seconds 483 msec
