                         Program Version 3.0.3 - RELEASE   -
|  1> ! RI PBE def2-SVP def2-SVP/J NBO PAL2
|  2> % maxcore 2000
|  3> % output
|  4>     # printlevel mini
|  5>     print[ P_Basis ] 0
|  6>     print[ P_SCFInfo ] 1
|  7>     print[ P_SCFIterInfo ] 1
|  8>     print[ P_OrbEn ] 0
|  9>     print[ P_Cartesian ] 0
| 10> end
| 11> *xyz 0 1
| 12>  N        1.4262150000    -0.4614720000    -1.1005240000
| 13>  C        2.2297670000     0.1244680000    -0.0357950000
| 14>  C        2.7424810000     1.4540720000    -0.4560830000
| 15>  C        2.5563900000     2.6781910000     0.0796350000
| 16>  O        3.2430320000     3.5821050000    -0.6714750000
| 17>  C        3.8092730000     2.8446130000    -1.6386310000
| 18>  N        3.5576950000     1.5865330000    -1.5699620000
| 19>  H        1.2097080000    -1.4265750000    -0.8840400000
| 20>  H        1.9672180000    -0.4625750000    -1.9578580000
| 21>  H        3.0930910000    -0.4947770000     0.2551250000
| 22>  H        1.6083720000     0.2482350000     0.8555320000
| 23>  H        2.0076910000     3.0604260000     0.9229620000
| 24>  H        4.4110790000     3.3684550000    -2.3652050000
| 25> *
| 26>
| 27>                          ****END OF INPUT****
 Total Charge           Charge          ....    0
 Multiplicity           Mult            ....    1
 Number of Electrons    NEL             ....   52
 Basis Dimension        Dim             ....  128

MULLIKEN ATOMIC CHARGES
-----------------------
   0 N :   -0.220786
   1 C :    0.227286
   2 C :   -0.138658
   3 C :    0.073578
   4 O :   -0.156120
   5 C :    0.138211
   6 N :   -0.135489
   7 H :    0.087258
   8 H :    0.097242
   9 H :    0.007043
  10 H :   -0.013550
  11 H :    0.008042
  12 H :    0.025943
Sum of atomic charges:    0.0000000

LOEWDIN ATOMIC CHARGES
----------------------
   0 N :   -0.110771
   1 C :    0.010239
   2 C :   -0.057275
   3 C :    0.001162
   4 O :    0.034041
   5 C :    0.032584
   6 N :   -0.099914
   7 H :    0.052197
   8 H :    0.051822
   9 H :    0.014171
  10 H :    0.025487
  11 H :    0.025164
  12 H :    0.021092

  Mayer bond orders larger than 0.1
B(  0-N ,  1-C ) :   1.0939 B(  0-N ,  7-H ) :   0.9613 B(  0-N ,  8-H ) :   0.9623
B(  1-C ,  2-C ) :   1.0658 B(  1-C ,  9-H ) :   0.8948 B(  1-C , 10-H ) :   0.9012
B(  2-C ,  3-C ) :   1.5944 B(  2-C ,  6-N ) :   1.3069 B(  3-C ,  4-O ) :   1.1320
B(  3-C , 11-H ) :   0.9913 B(  4-O ,  5-C ) :   1.1893 B(  5-C ,  6-N ) :   1.7108
B(  5-C , 12-H ) :   0.9739

FINAL SINGLE POINT ENERGY      -340.086046742665

DIPOLE MOMENT
-------------
                                X             Y             Z
Electronic contribution:      2.34133       5.25342      -1.01418
Nuclear contribution   :     -2.20615      -5.29069       1.37765
                        -----------------------------------------
Total Dipole Moment    :      0.13518      -0.03727       0.36347
                        -----------------------------------------
Magnitude (a.u.)       :      0.38958
Magnitude (Debye)      :      0.99024

                             ****ORCA TERMINATED NORMALLY****
TOTAL RUN TIME: 0 days 0 hours 0 minutes 6 seconds 311 msec
