                         Program Version 3.0.3 - RELEASE   -
|  1> ! RI PBE def2-SVP def2-SVP/J NBO PAL2
|  2> % maxcore 2000
|  3> % output
|  4>     # printlevel mini
|  5>     print[ P_Basis ] 0
|  6>     print[ P_SCFInfo ] 1
|  7>     print[ P_SCFIterInfo ] 1
|  8>     print[ P_OrbEn ] 0
|  9>     print[ P_Cartesian ] 0
| 10> end
| 11> *xyz 0 1
| 12>  N        0.9442890000    -0.0808270000    -0.0724630000
| 13>  C        2.0950040000    -0.0897130000    -0.0692800000
| 14>  C        3.5124680000    -0.0702250000    -0.0655420000
| 15>  C        4.3234740000     1.0163640000    -0.0670240000
| 16>  O        5.5956440000     0.5740940000    -0.0621200000
| 17>  C        5.4924630000    -0.7711640000    -0.0578720000
| 18>  N        4.2897770000    -1.2162800000    -0.0596300000
| 19>  H        4.1580240000     2.0798390000    -0.0710420000
| 20>  H        6.4134580000    -1.3325880000    -0.0535160000
| 21> *
| 22>
| 23>                          ****END OF INPUT****
 Total Charge           Charge          ....    0
 Multiplicity           Mult            ....    1
 Number of Electrons    NEL             ....   48
 Basis Dimension        Dim             ....  108

MULLIKEN ATOMIC CHARGES
-----------------------
   0 N :    0.114674
   1 C :   -0.064664
   2 C :   -0.204267
   3 C :    0.132827
   4 O :   -0.131711
   5 C :    0.157171
   6 N :   -0.078776
   7 H :    0.033364
   8 H :    0.041382
Sum of atomic charges:   -0.0000000

LOEWDIN ATOMIC CHARGES
----------------------
   0 N :   -0.031731
   1 C :   -0.035945
   2 C :   -0.091416
   3 C :    0.048557
   4 O :    0.052938
   5 C :    0.051424
   6 N :   -0.063284
   7 H :    0.038898
   8 H :    0.030557

  Mayer bond orders larger than 0.1
B(  0-N ,  1-C ) :   3.0193 B(  1-C ,  2-C ) :   1.1216 B(  2-C ,  3-C ) :   1.5318
B(  2-C ,  6-N ) :   1.3653 B(  3-C ,  4-O ) :   1.1793 B(  3-C ,  7-H ) :   0.9977
B(  4-O ,  5-C ) :   1.1615 B(  5-C ,  6-N ) :   1.7197 B(  5-C ,  8-H ) :   0.9718

FINAL SINGLE POINT ENERGY      -337.680608047878

DIPOLE MOMENT
-------------
                                X             Y             Z
Electronic contribution:     -1.14521      -0.22250      -0.00237
Nuclear contribution   :      2.77567       0.84811       0.00462
                        -----------------------------------------
Total Dipole Moment    :      1.63047       0.62561       0.00225
                        -----------------------------------------
Magnitude (a.u.)       :      1.74637
Magnitude (Debye)      :      4.43893

                             ****ORCA TERMINATED NORMALLY****
TOTAL RUN TIME: 0 days 0 hours 0 minutes 5 seconds 234 msec
