                         Program Version 3.0.3 - RELEASE   -
|  1> ! RI PBE def2-SVP def2-SVP/J NBO PAL2
|  2> % maxcore 2000
|  3> % output
|  4>     # printlevel mini
|  5>     print[ P_Basis ] 0
|  6>     print[ P_SCFInfo ] 1
|  7>     print[ P_SCFIterInfo ] 1
|  8>     print[ P_OrbEn ] 0
|  9>     print[ P_Cartesian ] 0
| 10> end
| 11> *xyz 0 1
| 12>  N        1.3927400000    -0.7766950000     1.1830620000
| 13>  C        2.3040240000    -0.0884670000     0.2837690000
| 14>  C        3.2963120000    -1.0298020000    -0.3607280000
| 15>  C        4.2187490000    -0.3727160000    -1.3664940000
| 16>  O        4.9235420000    -1.3174630000    -2.1216020000
| 17>  C        3.7420630000    -2.2427590000     0.3437400000
| 18>  N        2.8248300000    -2.3363320000    -0.7968040000
| 19>  H        0.5160760000    -0.2812610000     1.2601230000
| 20>  H        1.7769760000    -0.8525130000     2.1150930000
| 21>  H        2.8578650000     0.7334510000     0.7605680000
| 22>  H        1.7098350000     0.3646640000    -0.5172150000
| 23>  H        4.9483580000     0.2628370000    -0.8540950000
| 24>  H        3.6130450000     0.2798230000    -2.0173200000
| 25>  H        4.2991380000    -2.0483460000    -2.2503600000
| 26>  H        3.3303890000    -2.4494020000     1.3257180000
| 27>  H        4.7393580000    -2.6267330000     0.1613970000
| 28>  H        1.8806090000    -2.4713770000    -0.4428310000
| 29> *
| 30>
| 31>                          ****END OF INPUT****
 Total Charge           Charge          ....    0
 Multiplicity           Mult            ....    1
 Number of Electrons    NEL             ....   56
 Basis Dimension        Dim             ....  148

MULLIKEN ATOMIC CHARGES
-----------------------
   0 N :   -0.210798
   1 C :    0.152715
   2 C :   -0.349455
   3 C :    0.310088
   4 O :   -0.283306
   5 C :    0.089936
   6 N :   -0.203260
   7 H :    0.101720
   8 H :    0.100481
   9 H :    0.006748
  10 H :    0.006676
  11 H :    0.002623
  12 H :   -0.015294
  13 H :    0.148820
  14 H :    0.010516
  15 H :    0.027348
  16 H :    0.104441
Sum of atomic charges:   -0.0000000

LOEWDIN ATOMIC CHARGES
----------------------
   0 N :   -0.096558
   1 C :    0.009573
   2 C :   -0.067850
   3 C :    0.060591
   4 O :   -0.120516
   5 C :    0.006826
   6 N :   -0.095974
   7 H :    0.060358
   8 H :    0.056740
   9 H :    0.012317
  10 H :    0.025196
  11 H :    0.018033
  12 H :    0.002148
  13 H :    0.053356
  14 H :    0.010504
  15 H :    0.018176
  16 H :    0.047080

  Mayer bond orders larger than 0.1
B(  0-N ,  1-C ) :   1.1217 B(  0-N ,  7-H ) :   0.9640 B(  0-N ,  8-H ) :   0.9652
B(  1-C ,  2-C ) :   0.9960 B(  1-C ,  9-H ) :   0.9322 B(  1-C , 10-H ) :   0.9215
B(  2-C ,  3-C ) :   0.9885 B(  2-C ,  5-C ) :   1.0375 B(  2-C ,  6-N ) :   0.9966
B(  3-C ,  4-O ) :   1.1102 B(  3-C , 11-H ) :   0.9303 B(  3-C , 12-H ) :   0.9175
B(  4-O , 13-H ) :   0.9462 B(  5-C ,  6-N ) :   0.9785 B(  5-C , 14-H ) :   0.9334
B(  5-C , 15-H ) :   0.9298 B(  6-N , 16-H ) :   0.9258

FINAL SINGLE POINT ENERGY      -342.448495123930

DIPOLE MOMENT
-------------
                                X             Y             Z
Electronic contribution:      1.53687      -1.76294      -2.28084
Nuclear contribution   :     -2.52102       2.36863       3.42754
                        -----------------------------------------
Total Dipole Moment    :     -0.98414       0.60569       1.14670
                        -----------------------------------------
Magnitude (a.u.)       :      1.62797
Magnitude (Debye)      :      4.13798

                             ****ORCA TERMINATED NORMALLY****
TOTAL RUN TIME: 0 days 0 hours 0 minutes 7 seconds 155 msec
