                         Program Version 3.0.3 - RELEASE   -
|  1> ! RI PBE def2-SVP def2-SVP/J NBO PAL2
|  2> % maxcore 2000
|  3> % output
|  4>     # printlevel mini
|  5>     print[ P_Basis ] 0
|  6>     print[ P_SCFInfo ] 1
|  7>     print[ P_SCFIterInfo ] 1
|  8>     print[ P_OrbEn ] 0
|  9>     print[ P_Cartesian ] 0
| 10> end
| 11> *xyz 0 1
| 12>  N        0.9732070000    -0.2473470000     0.4468140000
| 13>  C        2.4164530000    -0.1797470000     0.2458280000
| 14>  C        3.0484780000     0.7278340000     1.2226190000
| 15>  C        3.9856840000     0.5691090000     2.1469420000
| 16>  O        4.2995590000     1.7769490000     2.7329360000
| 17>  C        3.2262460000     2.6110430000     2.3515890000
| 18>  O        2.6866690000     2.0638740000     1.1645300000
| 19>  H        0.5443820000    -0.7833060000    -0.2976850000
| 20>  H        0.5835580000     0.6866260000     0.3992830000
| 21>  H        2.7029080000     0.1598900000    -0.7635130000
| 22>  H        2.8450480000    -1.1754190000     0.3844470000
| 23>  H        4.5436770000    -0.2977780000     2.4564190000
| 24>  H        3.5882740000     3.6223740000     2.1652660000
| 25>  H        2.4546570000     2.5972090000     3.1395260000
| 26> *
| 27>
| 28>                          ****END OF INPUT****
 Total Charge           Charge          ....    0
 Multiplicity           Mult            ....    1
 Number of Electrons    NEL             ....   54
 Basis Dimension        Dim             ....  133

MULLIKEN ATOMIC CHARGES
-----------------------
   0 N :   -0.219076
   1 C :    0.197698
   2 C :   -0.016642
   3 C :    0.050859
   4 O :   -0.287679
   5 C :    0.342225
   6 O :   -0.303849
   7 H :    0.087503
   8 H :    0.094563
   9 H :    0.005804
  10 H :    0.000822
  11 H :    0.007976
  12 H :    0.033190
  13 H :    0.006606
Sum of atomic charges:   -0.0000000

LOEWDIN ATOMIC CHARGES
----------------------
   0 N :   -0.112309
   1 C :    0.006758
   2 C :   -0.020374
   3 C :   -0.014919
   4 O :   -0.102739
   5 C :    0.165325
   6 O :   -0.109906
   7 H :    0.052331
   8 H :    0.050824
   9 H :    0.013893
  10 H :    0.033471
  11 H :    0.026003
  12 H :    0.015978
  13 H :   -0.004334

  Mayer bond orders larger than 0.1
B(  0-N ,  1-C ) :   1.0735 B(  0-N ,  7-H ) :   0.9617 B(  0-N ,  8-H ) :   0.9648
B(  1-C ,  2-C ) :   1.0763 B(  1-C ,  9-H ) :   0.8914 B(  1-C , 10-H ) :   0.9107
B(  2-C ,  3-C ) :   1.7270 B(  2-C ,  4-O ) :   0.1008 B(  2-C ,  6-O ) :   1.0430
B(  3-C ,  4-O ) :   1.0392 B(  3-C , 11-H ) :   0.9878 B(  4-O ,  5-C ) :   1.0244
B(  5-C ,  6-O ) :   1.0131 B(  5-C , 12-H ) :   0.9564 B(  5-C , 13-H ) :   0.9265

FINAL SINGLE POINT ENERGY      -361.089181654716

DIPOLE MOMENT
-------------
                                X             Y             Z
Electronic contribution:      2.81457       2.42177       2.12202
Nuclear contribution   :     -2.96438      -2.45959      -2.57217
                        -----------------------------------------
Total Dipole Moment    :     -0.14981      -0.03782      -0.45016
                        -----------------------------------------
Magnitude (a.u.)       :      0.47594
Magnitude (Debye)      :      1.20973

                             ****ORCA TERMINATED NORMALLY****
TOTAL RUN TIME: 0 days 0 hours 0 minutes 6 seconds 30 msec
