                         Program Version 3.0.3 - RELEASE   -
|  1> ! RI PBE def2-SVP def2-SVP/J NBO PAL2
|  2> % maxcore 2000
|  3> % output
|  4>     # printlevel mini
|  5>     print[ P_Basis ] 0
|  6>     print[ P_SCFInfo ] 1
|  7>     print[ P_SCFIterInfo ] 1
|  8>     print[ P_OrbEn ] 0
|  9>     print[ P_Cartesian ] 0
| 10> end
| 11> *xyz 0 1
| 12>  N        1.1818070000    -0.7713380000    -0.2434870000
| 13>  C        2.5798640000    -0.3799910000    -0.1806980000
| 14>  C        2.8565410000     0.3521270000     1.1050180000
| 15>  C        2.6667300000    -0.4348280000     2.3825790000
| 16>  O        2.7678680000     0.3704470000     3.5285950000
| 17>  C        3.7161440000     1.5288920000     1.1033420000
| 18>  O        2.2970850000     1.6694620000     1.1608300000
| 19>  H        1.0025930000    -1.3368470000    -1.0624350000
| 20>  H        0.5991560000     0.0544610000    -0.3127540000
| 21>  H        2.9063760000     0.2571080000    -1.0156480000
| 22>  H        3.1957120000    -1.2855400000    -0.2059160000
| 23>  H        3.4462130000    -1.1990430000     2.4538170000
| 24>  H        1.6988450000    -0.9478680000     2.3291600000
| 25>  H        2.2021930000     1.1358460000     3.3747300000
| 26>  H        4.1706920000     1.8596370000     0.1728780000
| 27>  H        4.2377800000     1.7996760000     2.0161800000
| 28> *
| 29>
| 30>                          ****END OF INPUT****
 Total Charge           Charge          ....    0
 Multiplicity           Mult            ....    1
 Number of Electrons    NEL             ....   56
 Basis Dimension        Dim             ....  143

MULLIKEN ATOMIC CHARGES
-----------------------
   0 N :   -0.212829
   1 C :    0.202425
   2 C :   -0.282491
   3 C :    0.301803
   4 O :   -0.282478
   5 C :    0.189180
   6 O :   -0.312299
   7 H :    0.091938
   8 H :    0.098654
   9 H :   -0.022141
  10 H :    0.010371
  11 H :    0.011192
  12 H :    0.005137
  13 H :    0.153625
  14 H :    0.021047
  15 H :    0.026866
Sum of atomic charges:   -0.0000000

LOEWDIN ATOMIC CHARGES
----------------------
   0 N :   -0.103641
   1 C :    0.010497
   2 C :   -0.019344
   3 C :    0.054791
   4 O :   -0.113541
   5 C :    0.063109
   6 O :   -0.165202
   7 H :    0.055099
   8 H :    0.056282
   9 H :    0.005832
  10 H :    0.028916
  11 H :    0.026395
  12 H :    0.011182
  13 H :    0.061706
  14 H :    0.013131
  15 H :    0.014787

  Mayer bond orders larger than 0.1
B(  0-N ,  1-C ) :   1.0935 B(  0-N ,  7-H ) :   0.9640 B(  0-N ,  8-H ) :   0.9649
B(  1-C ,  2-C ) :   1.0445 B(  1-C ,  9-H ) :   0.8969 B(  1-C , 10-H ) :   0.9205
B(  2-C ,  3-C ) :   0.9835 B(  2-C ,  5-C ) :   1.0793 B(  2-C ,  6-O ) :   0.9439
B(  3-C ,  4-O ) :   1.0798 B(  3-C , 11-H ) :   0.9261 B(  3-C , 12-H ) :   0.9174
B(  4-O , 13-H ) :   0.9641 B(  5-C ,  6-O ) :   0.9826 B(  5-C , 14-H ) :   0.9225
B(  5-C , 15-H ) :   0.9217

FINAL SINGLE POINT ENERGY      -362.286601026615

DIPOLE MOMENT
-------------
                                X             Y             Z
Electronic contribution:     -0.31829       2.42688       2.53759
Nuclear contribution   :      0.45045      -2.53347      -3.54704
                        -----------------------------------------
Total Dipole Moment    :      0.13216      -0.10659      -1.00944
                        -----------------------------------------
Magnitude (a.u.)       :      1.02362
Magnitude (Debye)      :      2.60185

                             ****ORCA TERMINATED NORMALLY****
TOTAL RUN TIME: 0 days 0 hours 0 minutes 6 seconds 942 msec
