                         Program Version 3.0.3 - RELEASE   -
|  1> ! RI PBE def2-SVP def2-SVP/J NBO PAL2
|  2> % maxcore 2000
|  3> % output
|  4>     # printlevel mini
|  5>     print[ P_Basis ] 0
|  6>     print[ P_SCFInfo ] 1
|  7>     print[ P_SCFIterInfo ] 1
|  8>     print[ P_OrbEn ] 0
|  9>     print[ P_Cartesian ] 0
| 10> end
| 11> *xyz 0 1
| 12>  N        1.0800230000    -0.1259640000    -0.3833710000
| 13>  C        2.2065660000    -0.0801490000    -0.1603070000
| 14>  C        3.6302950000    -0.0266150000     0.1197420000
| 15>  C        4.1874030000    -1.2951000000     0.7749880000
| 16>  O        5.1272600000    -0.8140130000     1.7443070000
| 17>  N        4.8527940000     0.5013600000     2.0240110000
| 18>  C        4.0234550000     0.9664880000     1.1887210000
| 19>  H        4.1487500000     0.2215980000    -0.8150030000
| 20>  H        4.7146540000    -1.9509320000     0.0845600000
| 21>  H        3.3970760000    -1.8491670000     1.2898470000
| 22>  H        3.7033240000     1.9975930000     1.2448060000
| 23> *
| 24>
| 25>                          ****END OF INPUT****
 Total Charge           Charge          ....    0
 Multiplicity           Mult            ....    1
 Number of Electrons    NEL             ....   50
 Basis Dimension        Dim             ....  118

MULLIKEN ATOMIC CHARGES
-----------------------
   0 N :    0.080559
   1 C :   -0.185532
   2 C :   -0.192165
   3 C :    0.273070
   4 O :   -0.266976
   5 N :    0.049529
   6 C :    0.010089
   7 H :    0.082585
   8 H :    0.049972
   9 H :    0.050033
  10 H :    0.048837
Sum of atomic charges:    0.0000000

LOEWDIN ATOMIC CHARGES
----------------------
   0 N :   -0.046994
   1 C :   -0.043142
   2 C :   -0.087687
   3 C :    0.083904
   4 O :   -0.080743
   5 N :    0.033007
   6 C :   -0.034872
   7 H :    0.068835
   8 H :    0.036201
   9 H :    0.031468
  10 H :    0.040023

  Mayer bond orders larger than 0.1
B(  0-N ,  1-C ) :   3.0747 B(  1-C ,  2-C ) :   1.0583 B(  2-C ,  3-C ) :   1.0760
B(  2-C ,  6-C ) :   0.9803 B(  2-C ,  7-H ) :   0.8425 B(  3-C ,  4-O ) :   0.9414
B(  3-C ,  8-H ) :   0.9374 B(  3-C ,  9-H ) :   0.9430 B(  4-O ,  5-N ) :   1.0020
B(  4-O ,  6-C ) :   0.1190 B(  5-N ,  6-C ) :   1.9034 B(  6-C , 10-H ) :   0.9727

FINAL SINGLE POINT ENERGY      -338.819631406621

DIPOLE MOMENT
-------------
                                X             Y             Z
Electronic contribution:     -0.71795       0.86603       0.68732
Nuclear contribution   :      1.32425      -0.91950      -1.25339
                        -----------------------------------------
Total Dipole Moment    :      0.60630      -0.05347      -0.56607
                        -----------------------------------------
Magnitude (a.u.)       :      0.83120
Magnitude (Debye)      :      2.11275

                             ****ORCA TERMINATED NORMALLY****
TOTAL RUN TIME: 0 days 0 hours 0 minutes 5 seconds 870 msec
