                         Program Version 3.0.3 - RELEASE   -
|  1> ! RI PBE def2-SVP def2-SVP/J NBO PAL2
|  2> % maxcore 2000
|  3> % output
|  4>     # printlevel mini
|  5>     print[ P_Basis ] 0
|  6>     print[ P_SCFInfo ] 1
|  7>     print[ P_SCFIterInfo ] 1
|  8>     print[ P_OrbEn ] 0
|  9>     print[ P_Cartesian ] 0
| 10> end
| 11> *xyz 0 1
| 12>  N        1.0096540000    -0.0777560000    -0.0418240000
| 13>  C        2.3626460000     0.0322620000    -0.1681420000
| 14>  C        3.0331910000     0.7306000000    -1.0994070000
| 15>  C        4.5204810000     0.8656770000    -1.2580670000
| 16>  O        4.6692370000     1.7197890000    -2.4075160000
| 17>  N        3.4310140000     2.0719950000    -2.9022700000
| 18>  C        2.5217010000     1.5290790000    -2.1845150000
| 19>  H        0.6108540000    -0.6250840000     0.6936870000
| 20>  H        0.3811940000     0.3832710000    -0.6710170000
| 21>  H        2.9179060000    -0.5190100000     0.5842160000
| 22>  H        5.0319230000    -0.0800660000    -1.4694970000
| 23>  H        5.0151720000     1.3502510000    -0.4088510000
| 24>  H        1.4881280000     1.7125020000    -2.4484160000
| 25> *
| 26>
| 27>                          ****END OF INPUT****
 Total Charge           Charge          ....    0
 Multiplicity           Mult            ....    1
 Number of Electrons    NEL             ....   52
 Basis Dimension        Dim             ....  128

MULLIKEN ATOMIC CHARGES
-----------------------
   0 N :   -0.074978
   1 C :   -0.005199
   2 C :   -0.193030
   3 C :    0.274167
   4 O :   -0.283281
   5 N :    0.006724
   6 C :   -0.000790
   7 H :    0.120519
   8 H :    0.112966
   9 H :   -0.010556
  10 H :    0.031641
  11 H :    0.030625
  12 H :   -0.008807
Sum of atomic charges:   -0.0000000

LOEWDIN ATOMIC CHARGES
----------------------
   0 N :    0.014771
   1 C :   -0.001992
   2 C :   -0.157024
   3 C :    0.072846
   4 O :   -0.095339
   5 N :   -0.006401
   6 C :   -0.066868
   7 H :    0.074270
   8 H :    0.072068
   9 H :    0.027615
  10 H :    0.022564
  11 H :    0.022454
  12 H :    0.021035

  Mayer bond orders larger than 0.1
B(  0-N ,  1-C ) :   1.2771 B(  0-N ,  7-H ) :   0.9562 B(  0-N ,  8-H ) :   0.9573
B(  1-C ,  2-C ) :   1.6510 B(  1-C ,  9-H ) :   0.9399 B(  2-C ,  3-C ) :   1.0474
B(  2-C ,  6-C ) :   1.0852 B(  3-C ,  4-O ) :   0.9412 B(  3-C , 10-H ) :   0.9311
B(  3-C , 11-H ) :   0.9307 B(  4-O ,  5-N ) :   0.9940 B(  5-N ,  6-C ) :   1.7981
B(  6-C , 12-H ) :   0.9760

FINAL SINGLE POINT ENERGY      -340.030799566490

DIPOLE MOMENT
-------------
                                X             Y             Z
Electronic contribution:      1.56253       2.30716      -3.08551
Nuclear contribution   :     -2.81598      -3.39036       4.53255
                        -----------------------------------------
Total Dipole Moment    :     -1.25346      -1.08320       1.44704
                        -----------------------------------------
Magnitude (a.u.)       :      2.19964
Magnitude (Debye)      :      5.59104

                             ****ORCA TERMINATED NORMALLY****
TOTAL RUN TIME: 0 days 0 hours 0 minutes 6 seconds 318 msec
