                         Program Version 3.0.3 - RELEASE   -
|  1> ! RI PBE def2-SVP def2-SVP/J NBO PAL2
|  2> % maxcore 2000
|  3> % output
|  4>     # printlevel mini
|  5>     print[ P_Basis ] 0
|  6>     print[ P_SCFInfo ] 1
|  7>     print[ P_SCFIterInfo ] 1
|  8>     print[ P_OrbEn ] 0
|  9>     print[ P_Cartesian ] 0
| 10> end
| 11> *xyz 0 1
| 12>  N        2.9812810000     1.1544930000    -0.1082400000
| 13>  C        2.2824520000    -0.1073860000     0.0548790000
| 14>  C        3.2477810000    -1.2793070000    -0.1035820000
| 15>  C        2.6026400000    -2.6526390000     0.0780730000
| 16>  O        3.2872420000    -3.2715450000     1.1820100000
| 17>  N        4.2555410000    -2.4196600000     1.6638330000
| 18>  C        4.2710280000    -1.3477430000     0.9877580000
| 19>  H        2.3907960000     1.9319270000     0.1561410000
| 20>  H        3.2446150000     1.2969380000    -1.0758930000
| 21>  H        1.4442280000    -0.2508780000    -0.6454570000
| 22>  H        1.8594220000    -0.1393560000     1.0637010000
| 23>  H        3.7403640000    -1.1892760000    -1.0792360000
| 24>  H        2.7130450000    -3.2997010000    -0.7945030000
| 25>  H        1.5405900000    -2.5805500000     0.3336630000
| 26>  H        4.9696750000    -0.5624190000     1.2412510000
| 27> *
| 28>
| 29>                          ****END OF INPUT****
 Total Charge           Charge          ....    0
 Multiplicity           Mult            ....    1
 Number of Electrons    NEL             ....   54
 Basis Dimension        Dim             ....  138

MULLIKEN ATOMIC CHARGES
-----------------------
   0 N :   -0.208601
   1 C :    0.113234
   2 C :   -0.222384
   3 C :    0.275891
   4 O :   -0.285127
   5 N :    0.023268
   6 C :    0.001058
   7 H :    0.095746
   8 H :    0.090738
   9 H :    0.006714
  10 H :    0.011996
  11 H :    0.023386
  12 H :    0.027044
  13 H :    0.017781
  14 H :    0.029258
Sum of atomic charges:   -0.0000000

LOEWDIN ATOMIC CHARGES
----------------------
   0 N :   -0.106745
   1 C :    0.013802
   2 C :   -0.078197
   3 C :    0.066412
   4 O :   -0.099868
   5 N :    0.010305
   6 C :   -0.047873
   7 H :    0.057407
   8 H :    0.052699
   9 H :    0.002041
  10 H :    0.024377
  11 H :    0.032679
  12 H :    0.022715
  13 H :    0.020252
  14 H :    0.029994

  Mayer bond orders larger than 0.1
B(  0-N ,  1-C ) :   1.1073 B(  0-N ,  7-H ) :   0.9657 B(  0-N ,  8-H ) :   0.9675
B(  1-C ,  2-C ) :   1.0316 B(  1-C ,  9-H ) :   0.9311 B(  1-C , 10-H ) :   0.9245
B(  2-C ,  3-C ) :   1.0622 B(  2-C ,  6-C ) :   0.9835 B(  2-C , 11-H ) :   0.8998
B(  3-C ,  4-O ) :   0.9436 B(  3-C , 12-H ) :   0.9364 B(  3-C , 13-H ) :   0.9373
B(  4-O ,  5-N ) :   0.9932 B(  4-O ,  6-C ) :   0.1153 B(  5-N ,  6-C ) :   1.8922
B(  6-C , 14-H ) :   0.9720

FINAL SINGLE POINT ENERGY      -341.227444326939

DIPOLE MOMENT
-------------
                                X             Y             Z
Electronic contribution:      3.02979      -4.85790       3.42111
Nuclear contribution   :     -3.81127       5.94843      -4.64459
                        -----------------------------------------
Total Dipole Moment    :     -0.78148       1.09053      -1.22348
                        -----------------------------------------
Magnitude (a.u.)       :      1.81573
Magnitude (Debye)      :      4.61521

                             ****ORCA TERMINATED NORMALLY****
TOTAL RUN TIME: 0 days 0 hours 0 minutes 7 seconds 98 msec
