                         Program Version 3.0.3 - RELEASE   -
|  1> ! RI PBE def2-SVP def2-SVP/J NBO PAL2
|  2> % maxcore 2000
|  3> % output
|  4>     # printlevel mini
|  5>     print[ P_Basis ] 0
|  6>     print[ P_SCFInfo ] 1
|  7>     print[ P_SCFIterInfo ] 1
|  8>     print[ P_OrbEn ] 0
|  9>     print[ P_Cartesian ] 0
| 10> end
| 11> *xyz 0 1
| 12>  N        1.9727790000    -0.9880730000     0.6012340000
| 13>  C        1.8134470000     0.1356680000    -0.3114710000
| 14>  C        2.7995990000     0.0474140000    -1.4399340000
| 15>  N        2.6852390000    -1.0344160000    -2.4102800000
| 16>  C        2.3763050000     0.3353210000    -2.8236590000
| 17>  C        3.3205520000     0.8817840000    -3.8529500000
| 18>  O        3.1490750000     0.2405570000    -5.0958730000
| 19>  H        1.3316350000    -0.9088750000     1.3805000000
| 20>  H        2.9088850000    -1.0019130000     0.9886550000
| 21>  H        1.9213210000     1.1221270000     0.1671310000
| 22>  H        0.7987680000     0.0929240000    -0.7223800000
| 23>  H        3.8297160000     0.2740660000    -1.1679620000
| 24>  H        1.8418920000    -1.5667270000    -2.2208870000
| 25>  H        1.3282890000     0.5855680000    -2.9737910000
| 26>  H        4.3515840000     0.7691600000    -3.4899890000
| 27>  H        3.1362940000     1.9458840000    -4.0212690000
| 28>  H        3.2401420000    -0.7029800000    -4.9242660000
| 29> *
| 30>
| 31>                          ****END OF INPUT****
 Total Charge           Charge          ....    0
 Multiplicity           Mult            ....    1
 Number of Electrons    NEL             ....   56
 Basis Dimension        Dim             ....  148

MULLIKEN ATOMIC CHARGES
-----------------------
   0 N :   -0.217891
   1 C :    0.157978
   2 C :   -0.070527
   3 N :   -0.169824
   4 C :   -0.168428
   5 C :    0.312652
   6 O :   -0.295812
   7 H :    0.092151
   8 H :    0.089380
   9 H :    0.001151
  10 H :   -0.012954
  11 H :    0.012458
  12 H :    0.111356
  13 H :    0.017731
  14 H :   -0.019930
  15 H :    0.008779
  16 H :    0.151731
Sum of atomic charges:    0.0000000

LOEWDIN ATOMIC CHARGES
----------------------
   0 N :   -0.113800
   1 C :    0.000099
   2 C :   -0.007465
   3 N :   -0.099632
   4 C :   -0.026115
   5 C :    0.054747
   6 O :   -0.123009
   7 H :    0.053672
   8 H :    0.052388
   9 H :    0.007112
  10 H :    0.018979
  11 H :    0.016832
  12 H :    0.056811
  13 H :    0.015040
  14 H :    0.006480
  15 H :    0.022538
  16 H :    0.065323

  Mayer bond orders larger than 0.1
B(  0-N ,  1-C ) :   1.0644 B(  0-N ,  7-H ) :   0.9649 B(  0-N ,  8-H ) :   0.9688
B(  1-C ,  2-C ) :   1.0639 B(  1-C ,  9-H ) :   0.9126 B(  1-C , 10-H ) :   0.9123
B(  2-C ,  3-N ) :   1.0048 B(  2-C ,  4-C ) :   0.9875 B(  2-C , 11-H ) :   0.9105
B(  3-N ,  4-C ) :   0.9655 B(  3-N , 12-H ) :   0.9384 B(  4-C ,  5-C ) :   1.0393
B(  4-C , 13-H ) :   0.9330 B(  5-C ,  6-O ) :   1.0505 B(  5-C , 14-H ) :   0.9094
B(  5-C , 15-H ) :   0.9305 B(  6-O , 16-H ) :   0.9794

FINAL SINGLE POINT ENERGY      -342.439915248275

DIPOLE MOMENT
-------------
                                X             Y             Z
Electronic contribution:      0.77151      -0.96852      -3.55830
Nuclear contribution   :     -1.11371       1.21322       4.72460
                        -----------------------------------------
Total Dipole Moment    :     -0.34221       0.24469       1.16629
                        -----------------------------------------
Magnitude (a.u.)       :      1.23985
Magnitude (Debye)      :      3.15144

                             ****ORCA TERMINATED NORMALLY****
TOTAL RUN TIME: 0 days 0 hours 0 minutes 6 seconds 904 msec
