                         Program Version 3.0.3 - RELEASE   -
|  1> ! RI PBE def2-SVP def2-SVP/J NBO PAL2
|  2> % maxcore 2000
|  3> % output
|  4>     # printlevel mini
|  5>     print[ P_Basis ] 0
|  6>     print[ P_SCFInfo ] 1
|  7>     print[ P_SCFIterInfo ] 1
|  8>     print[ P_OrbEn ] 0
|  9>     print[ P_Cartesian ] 0
| 10> end
| 11> *xyz 0 1
| 12>  N        1.0869310000    -0.1227070000     0.2207350000
| 13>  C        2.4894430000     0.1713940000    -0.0425730000
| 14>  C        2.5850350000     1.4668760000    -0.8283770000
| 15>  N        2.0150190000     2.6391340000    -0.1446800000
| 16>  C        3.3456440000     3.0342170000     0.3455720000
| 17>  C        3.9588250000     2.1533030000    -0.7581320000
| 18>  O        5.0327720000     1.3084000000    -0.4470500000
| 19>  H        0.9963360000    -0.9262880000     0.8284330000
| 20>  H        0.6014370000    -0.3461490000    -0.6403260000
| 21>  H        3.0252190000    -0.6177470000    -0.5889440000
| 22>  H        2.9980680000     0.2878520000     0.9183240000
| 23>  H        2.1775570000     1.3117260000    -1.8359650000
| 24>  H        1.3317160000     2.3878730000     0.5607620000
| 25>  H        3.5455440000     4.1093080000     0.3160250000
| 26>  H        3.6091670000     2.6451470000     1.3369850000
| 27>  H        4.1568370000     2.7300830000    -1.6675630000
| 28>  H        5.8491410000     1.8081890000    -0.5161460000
| 29> *
| 30>
| 31>                          ****END OF INPUT****
 Total Charge           Charge          ....    0
 Multiplicity           Mult            ....    1
 Number of Electrons    NEL             ....   56
 Basis Dimension        Dim             ....  148

MULLIKEN ATOMIC CHARGES
-----------------------
   0 N :   -0.210754
   1 C :    0.152696
   2 C :   -0.069819
   3 N :   -0.230369
   4 C :    0.154503
   5 C :    0.032740
   6 O :   -0.234790
   7 H :    0.091300
   8 H :    0.088768
   9 H :   -0.000496
  10 H :   -0.009582
  11 H :   -0.007730
  12 H :    0.091990
  13 H :    0.002643
  14 H :   -0.006956
  15 H :   -0.001646
  16 H :    0.157502
Sum of atomic charges:   -0.0000000

LOEWDIN ATOMIC CHARGES
----------------------
   0 N :   -0.107919
   1 C :   -0.003121
   2 C :   -0.000998
   3 N :   -0.101477
   4 C :    0.006287
   5 C :    0.043291
   6 O :   -0.105875
   7 H :    0.053682
   8 H :    0.051417
   9 H :    0.005712
  10 H :    0.019847
  11 H :    0.005707
  12 H :    0.040668
  13 H :    0.006626
  14 H :    0.003228
  15 H :    0.009531
  16 H :    0.073394

  Mayer bond orders larger than 0.1
B(  0-N ,  1-C ) :   1.0846 B(  0-N ,  7-H ) :   0.9658 B(  0-N ,  8-H ) :   0.9650
B(  1-C ,  2-C ) :   1.0463 B(  1-C ,  9-H ) :   0.9174 B(  1-C , 10-H ) :   0.9050
B(  2-C ,  3-N ) :   1.0829 B(  2-C ,  5-C ) :   1.0249 B(  2-C , 11-H ) :   0.8996
B(  3-N ,  4-C ) :   1.0636 B(  3-N , 12-H ) :   0.9266 B(  4-C ,  5-C ) :   1.0514
B(  4-C , 13-H ) :   0.9299 B(  4-C , 14-H ) :   0.9087 B(  5-C ,  6-O ) :   1.1477
B(  5-C , 15-H ) :   0.9125 B(  6-O , 16-H ) :   0.9771

FINAL SINGLE POINT ENERGY      -342.442795305531

DIPOLE MOMENT
-------------
                                X             Y             Z
Electronic contribution:      1.54355       1.04019      -0.89406
Nuclear contribution   :     -1.10641      -1.37383       0.88528
                        -----------------------------------------
Total Dipole Moment    :      0.43713      -0.33364      -0.00878
                        -----------------------------------------
Magnitude (a.u.)       :      0.54998
Magnitude (Debye)      :      1.39794

                             ****ORCA TERMINATED NORMALLY****
TOTAL RUN TIME: 0 days 0 hours 0 minutes 7 seconds 633 msec
