                         Program Version 3.0.3 - RELEASE   -
|  1> ! RI PBE def2-SVP def2-SVP/J NBO PAL2
|  2> % maxcore 2000
|  3> % output
|  4>     # printlevel mini
|  5>     print[ P_Basis ] 0
|  6>     print[ P_SCFInfo ] 1
|  7>     print[ P_SCFIterInfo ] 1
|  8>     print[ P_OrbEn ] 0
|  9>     print[ P_Cartesian ] 0
| 10> end
| 11> *xyz 0 1
| 12>  N        0.8707220000    -0.5346230000    -0.0227520000
| 13>  C        2.2528000000    -0.0895500000    -0.0537990000
| 14>  C        2.9167960000    -0.3261900000    -1.3927390000
| 15>  N        4.2923030000     0.0814470000    -1.4948330000
| 16>  C        2.5549980000    -1.5255730000    -2.2320710000
| 17>  C        2.1607850000    -0.1469560000    -2.6767190000
| 18>  O        2.8040000000     0.4542060000    -3.7446350000
| 19>  H        0.3635140000    -0.0841880000     0.7261460000
| 20>  H        0.8139140000    -1.5318850000     0.1368760000
| 21>  H        2.8822410000    -0.5512090000     0.7260700000
| 22>  H        2.2630050000     0.9898880000     0.1399290000
| 23>  H        4.9167290000    -0.5724150000    -1.0398790000
| 24>  H        4.4338580000     0.9938140000    -1.0766240000
| 25>  H        1.7761170000    -2.1912450000    -1.8810300000
| 26>  H        3.3636180000    -2.0013960000    -2.7748310000
| 27>  H        1.1123550000     0.1151620000    -2.6086950000
| 28>  H        3.7374340000     0.4930020000    -3.4831250000
| 29> *
| 30>
| 31>                          ****END OF INPUT****
 Total Charge           Charge          ....    0
 Multiplicity           Mult            ....    1
 Number of Electrons    NEL             ....   56
 Basis Dimension        Dim             ....  148

MULLIKEN ATOMIC CHARGES
-----------------------
   0 N :   -0.204583
   1 C :    0.185077
   2 C :   -0.260681
   3 N :   -0.146531
   4 C :   -0.003936
   5 C :    0.125438
   6 O :   -0.230948
   7 H :    0.092312
   8 H :    0.092431
   9 H :   -0.024916
  10 H :   -0.004037
  11 H :    0.103561
  12 H :    0.094763
  13 H :    0.017831
  14 H :    0.016519
  15 H :    0.016033
  16 H :    0.131668
Sum of atomic charges:   -0.0000000

LOEWDIN ATOMIC CHARGES
----------------------
   0 N :   -0.101290
   1 C :    0.003417
   2 C :   -0.067949
   3 N :   -0.055490
   4 C :   -0.069591
   5 C :    0.042868
   6 O :   -0.100743
   7 H :    0.056646
   8 H :    0.052242
   9 H :   -0.004642
  10 H :    0.019659
  11 H :    0.057594
  12 H :    0.056412
  13 H :    0.022356
  14 H :    0.026578
  15 H :    0.017024
  16 H :    0.044908

  Mayer bond orders larger than 0.1
B(  0-N ,  1-C ) :   1.1162 B(  0-N ,  7-H ) :   0.9621 B(  0-N ,  8-H ) :   0.9654
B(  1-C ,  2-C ) :   0.9981 B(  1-C ,  9-H ) :   0.9154 B(  1-C , 10-H ) :   0.9200
B(  2-C ,  3-N ) :   1.1417 B(  2-C ,  4-C ) :   0.9765 B(  2-C ,  5-C ) :   0.8831
B(  3-N , 11-H ) :   0.9626 B(  3-N , 12-H ) :   0.9654 B(  3-N , 16-H ) :   0.1155
B(  4-C ,  5-C ) :   0.9577 B(  4-C , 13-H ) :   0.9248 B(  4-C , 14-H ) :   0.9222
B(  5-C ,  6-O ) :   1.1662 B(  5-C , 15-H ) :   0.9396 B(  6-O , 16-H ) :   0.9408

FINAL SINGLE POINT ENERGY      -342.451090428419

DIPOLE MOMENT
-------------
                                X             Y             Z
Electronic contribution:      0.37350       1.22470      -3.47571
Nuclear contribution   :      0.03416      -1.43933       5.03035
                        -----------------------------------------
Total Dipole Moment    :      0.40766      -0.21463       1.55464
                        -----------------------------------------
Magnitude (a.u.)       :      1.62147
Magnitude (Debye)      :      4.12144

                             ****ORCA TERMINATED NORMALLY****
TOTAL RUN TIME: 0 days 0 hours 0 minutes 7 seconds 633 msec
