                         Program Version 3.0.3 - RELEASE   -
|  1> ! RI PBE def2-SVP def2-SVP/J NBO PAL2
|  2> % maxcore 2000
|  3> % output
|  4>     # printlevel mini
|  5>     print[ P_Basis ] 0
|  6>     print[ P_SCFInfo ] 1
|  7>     print[ P_SCFIterInfo ] 1
|  8>     print[ P_OrbEn ] 0
|  9>     print[ P_Cartesian ] 0
| 10> end
| 11> *xyz 0 1
| 12>  N        1.0390580000     0.1708290000    -0.0067300000
| 13>  C        2.4895310000     0.0537510000    -0.0181310000
| 14>  C        2.9500140000    -0.7768580000    -1.1584610000
| 15>  N        3.8431600000    -0.5040320000    -2.0461600000
| 16>  C        3.9015680000    -1.6319560000    -2.8419720000
| 17>  C        3.0195580000    -2.5398710000    -2.3822870000
| 18>  O        2.4029560000    -2.0042520000    -1.2948330000
| 19>  H        0.7455210000     0.7543950000     0.7660920000
| 20>  H        0.6146180000    -0.7385860000     0.1279630000
| 21>  H        2.9129770000    -0.3690720000     0.9080360000
| 22>  H        2.9336460000     1.0401280000    -0.1559610000
| 23>  H        4.5678580000    -1.7026540000    -3.6865860000
| 24>  H        2.7174340000    -3.5293330000    -2.6786710000
| 25> *
| 26>
| 27>                          ****END OF INPUT****
 Total Charge           Charge          ....    0
 Multiplicity           Mult            ....    1
 Number of Electrons    NEL             ....   52
 Basis Dimension        Dim             ....  128

MULLIKEN ATOMIC CHARGES
-----------------------
   0 N :   -0.221053
   1 C :    0.195304
   2 C :   -0.045747
   3 N :   -0.113118
   4 C :    0.012172
   5 C :    0.104914
   6 O :   -0.173952
   7 H :    0.092132
   8 H :    0.096599
   9 H :    0.012772
  10 H :    0.021856
  11 H :    0.006217
  12 H :    0.011904
Sum of atomic charges:   -0.0000000

LOEWDIN ATOMIC CHARGES
----------------------
   0 N :   -0.106388
   1 C :    0.001633
   2 C :    0.011782
   3 N :   -0.100514
   4 C :   -0.046471
   5 C :    0.001680
   6 O :    0.023544
   7 H :    0.055537
   8 H :    0.051357
   9 H :    0.016276
  10 H :    0.042218
  11 H :    0.025371
  12 H :    0.023976

  Mayer bond orders larger than 0.1
B(  0-N ,  1-C ) :   1.0828 B(  0-N ,  7-H ) :   0.9629 B(  0-N ,  8-H ) :   0.9645
B(  1-C ,  2-C ) :   1.0487 B(  1-C ,  9-H ) :   0.8966 B(  1-C , 10-H ) :   0.9067
B(  2-C ,  3-N ) :   1.7573 B(  2-C ,  6-O ) :   1.1758 B(  3-N ,  4-C ) :   1.3009
B(  4-C ,  5-C ) :   1.5875 B(  4-C , 11-H ) :   0.9853 B(  5-C ,  6-O ) :   1.1208
B(  5-C , 12-H ) :   0.9852

FINAL SINGLE POINT ENERGY      -340.086668518374

DIPOLE MOMENT
-------------
                                X             Y             Z
Electronic contribution:      1.60009      -2.04601      -2.51879
Nuclear contribution   :     -1.89888       1.47470       3.09938
                        -----------------------------------------
Total Dipole Moment    :     -0.29879      -0.57131       0.58059
                        -----------------------------------------
Magnitude (a.u.)       :      0.86761
Magnitude (Debye)      :      2.20530

                             ****ORCA TERMINATED NORMALLY****
TOTAL RUN TIME: 0 days 0 hours 0 minutes 6 seconds 98 msec
