                         Program Version 3.0.3 - RELEASE   -
|  1> ! RI PBE def2-SVP def2-SVP/J NBO PAL2
|  2> % maxcore 2000
|  3> % output
|  4>     # printlevel mini
|  5>     print[ P_Basis ] 0
|  6>     print[ P_SCFInfo ] 1
|  7>     print[ P_SCFIterInfo ] 1
|  8>     print[ P_OrbEn ] 0
|  9>     print[ P_Cartesian ] 0
| 10> end
| 11> *xyz 0 1
| 12>  N        0.9997150000    -0.0131370000    -0.0732580000
| 13>  C        2.1480520000     0.0541270000    -0.0768790000
| 14>  C        3.5637490000     0.1334690000    -0.0813360000
| 15>  N        4.2944910000     1.1986130000    -0.0854710000
| 16>  C        5.5815700000     0.7218560000    -0.0885270000
| 17>  C        5.5504050000    -0.6308440000    -0.0860040000
| 18>  O        4.2573770000    -1.0223010000    -0.0813540000
| 19>  H        6.4344410000     1.3809500000    -0.0923050000
| 20>  H        6.2939990000    -1.4092420000    -0.0868660000
| 21> *
| 22>
| 23>                          ****END OF INPUT****
 Total Charge           Charge          ....    0
 Multiplicity           Mult            ....    1
 Number of Electrons    NEL             ....   48
 Basis Dimension        Dim             ....  108

MULLIKEN ATOMIC CHARGES
-----------------------
   0 N :    0.135384
   1 C :   -0.066616
   2 C :   -0.099388
   3 N :   -0.068825
   4 C :    0.041138
   5 C :    0.133656
   6 O :   -0.125180
   7 H :    0.018744
   8 H :    0.031088
Sum of atomic charges:   -0.0000000

LOEWDIN ATOMIC CHARGES
----------------------
   0 N :   -0.010402
   1 C :   -0.041416
   2 C :   -0.025356
   3 N :   -0.052346
   4 C :   -0.031054
   5 C :    0.030018
   6 O :    0.061075
   7 H :    0.034509
   8 H :    0.034974

  Mayer bond orders larger than 0.1
B(  0-N ,  1-C ) :   3.0144 B(  1-C ,  2-C ) :   1.1208 B(  2-C ,  3-N ) :   1.7190
B(  2-C ,  5-C ) :   0.1069 B(  2-C ,  6-O ) :   1.2266 B(  3-N ,  4-C ) :   1.3182
B(  4-C ,  5-C ) :   1.5320 B(  4-C ,  7-H ) :   0.9799 B(  5-C ,  6-O ) :   1.1515
B(  5-C ,  8-H ) :   0.9840

FINAL SINGLE POINT ENERGY      -337.676620646521

DIPOLE MOMENT
-------------
                                X             Y             Z
Electronic contribution:     -3.08274      -0.36092       0.00999
Nuclear contribution   :      4.80680      -0.10726      -0.01443
                        -----------------------------------------
Total Dipole Moment    :      1.72406      -0.46818      -0.00445
                        -----------------------------------------
Magnitude (a.u.)       :      1.78651
Magnitude (Debye)      :      4.54094

                             ****ORCA TERMINATED NORMALLY****
TOTAL RUN TIME: 0 days 0 hours 0 minutes 4 seconds 899 msec
