                         Program Version 3.0.3 - RELEASE   -
|  1> ! RI PBE def2-SVP def2-SVP/J NBO PAL2
|  2> % maxcore 2000
|  3> % output
|  4>     # printlevel mini
|  5>     print[ P_Basis ] 0
|  6>     print[ P_SCFInfo ] 1
|  7>     print[ P_SCFIterInfo ] 1
|  8>     print[ P_OrbEn ] 0
|  9>     print[ P_Cartesian ] 0
| 10> end
| 11> *xyz 0 1
| 12>  N        2.6585320000     0.5476870000     1.5710710000
| 13>  C        2.3203880000     0.1084210000     0.2310340000
| 14>  C        2.8513990000     1.0330910000    -0.8590970000
| 15>  N        2.5816820000     0.5374320000    -2.1950210000
| 16>  C        2.5076210000     2.5242480000    -0.7072480000
| 17>  O        3.8756320000     2.8767900000    -0.5021710000
| 18>  C        4.2977540000     1.5161100000    -0.6758810000
| 19>  H        2.4027360000    -0.1509010000     2.2557450000
| 20>  H        2.1694480000     1.3994690000     1.8146250000
| 21>  H        1.2367970000    -0.0180070000     0.0574170000
| 22>  H        2.7750340000    -0.8774320000     0.0777420000
| 23>  H        1.5865210000     0.3841500000    -2.3219290000
| 24>  H        3.0339130000    -0.3598490000    -2.3358080000
| 25>  H        1.8811520000     2.8010870000     0.1499620000
| 26>  H        2.0946120000     2.9714640000    -1.6171650000
| 27>  H        4.8038920000     1.1365920000     0.2151310000
| 28>  H        4.9201680000     1.3928570000    -1.5675050000
| 29> *
| 30>
| 31>                          ****END OF INPUT****
 Total Charge           Charge          ....    0
 Multiplicity           Mult            ....    1
 Number of Electrons    NEL             ....   56
 Basis Dimension        Dim             ....  148

MULLIKEN ATOMIC CHARGES
-----------------------
   0 N :   -0.202562
   1 C :    0.159274
   2 C :   -0.467398
   3 N :   -0.121270
   4 C :    0.331318
   5 O :   -0.367033
   6 C :    0.362475
   7 H :    0.095457
   8 H :    0.089320
   9 H :   -0.018360
  10 H :   -0.010033
  11 H :    0.085906
  12 H :    0.088452
  13 H :   -0.009908
  14 H :   -0.008496
  15 H :    0.003819
  16 H :   -0.010960
Sum of atomic charges:   -0.0000000

LOEWDIN ATOMIC CHARGES
----------------------
   0 N :   -0.103624
   1 C :   -0.006398
   2 C :   -0.053867
   3 N :   -0.078822
   4 C :    0.086183
   5 O :   -0.179043
   6 C :    0.092892
   7 H :    0.056665
   8 H :    0.050456
   9 H :   -0.004598
  10 H :    0.017308
  11 H :    0.049098
  12 H :    0.051076
  13 H :   -0.001475
  14 H :    0.009482
  15 H :    0.007789
  16 H :    0.006879

  Mayer bond orders larger than 0.1
B(  0-N ,  1-C ) :   1.0889 B(  0-N ,  7-H ) :   0.9605 B(  0-N ,  8-H ) :   0.9661
B(  1-C ,  2-C ) :   0.9781 B(  1-C ,  9-H ) :   0.9138 B(  1-C , 10-H ) :   0.9173
B(  2-C ,  3-N ) :   1.0756 B(  2-C ,  4-C ) :   1.0592 B(  2-C ,  6-C ) :   1.0564
B(  3-N , 11-H ) :   0.9647 B(  3-N , 12-H ) :   0.9643 B(  4-C ,  5-O ) :   1.0582
B(  4-C , 13-H ) :   0.9221 B(  4-C , 14-H ) :   0.9040 B(  5-O ,  6-C ) :   1.0389
B(  6-C , 15-H ) :   0.9186 B(  6-C , 16-H ) :   0.9084

FINAL SINGLE POINT ENERGY      -342.438294491620

DIPOLE MOMENT
-------------
                                X             Y             Z
Electronic contribution:      1.93986       2.92636      -0.72312
Nuclear contribution   :     -2.89300      -3.98646       0.99338
                        -----------------------------------------
Total Dipole Moment    :     -0.95314      -1.06010       0.27025
                        -----------------------------------------
Magnitude (a.u.)       :      1.45098
Magnitude (Debye)      :      3.68809

                             ****ORCA TERMINATED NORMALLY****
TOTAL RUN TIME: 0 days 0 hours 0 minutes 7 seconds 415 msec
