                         Program Version 3.0.3 - RELEASE   -
|  1> ! RI PBE def2-SVP def2-SVP/J NBO PAL2
|  2> % maxcore 2000
|  3> % output
|  4>     # printlevel mini
|  5>     print[ P_Basis ] 0
|  6>     print[ P_SCFInfo ] 1
|  7>     print[ P_SCFIterInfo ] 1
|  8>     print[ P_OrbEn ] 0
|  9>     print[ P_Cartesian ] 0
| 10> end
| 11> *xyz 0 1
| 12>  N        1.0250990000    -0.1646350000     0.3193470000
| 13>  C        2.1642440000    -0.1580250000     0.1509490000
| 14>  C        3.5648890000    -0.0562630000    -0.0481010000
| 15>  N        4.2759680000    -1.1003670000    -0.2458650000
| 16>  O        5.5704900000    -0.7609840000    -0.4079600000
| 17>  C        5.7363120000     0.6761610000    -0.3070740000
| 18>  C        4.3391800000     1.2299790000    -0.0490620000
| 19>  H        6.1715610000     1.0216250000    -1.2455740000
| 20>  H        6.4348750000     0.8681030000     0.5082010000
| 21>  H        3.9855280000     1.9042730000    -0.8315280000
| 22>  H        4.2448630000     1.7491440000     0.9067770000
| 23> *
| 24>
| 25>                          ****END OF INPUT****
 Total Charge           Charge          ....    0
 Multiplicity           Mult            ....    1
 Number of Electrons    NEL             ....   50
 Basis Dimension        Dim             ....  118

MULLIKEN ATOMIC CHARGES
-----------------------
   0 N :    0.091620
   1 C :   -0.061536
   2 C :   -0.315149
   3 N :    0.082561
   4 O :   -0.244318
   5 C :    0.192828
   6 C :    0.026515
   7 H :    0.048530
   8 H :    0.052283
   9 H :    0.064553
  10 H :    0.062112
Sum of atomic charges:   -0.0000000

LOEWDIN ATOMIC CHARGES
----------------------
   0 N :   -0.032762
   1 C :   -0.041574
   2 C :   -0.104926
   3 N :    0.046976
   4 O :   -0.058553
   5 C :    0.071814
   6 C :   -0.044181
   7 H :    0.031167
   8 H :    0.031871
   9 H :    0.050301
  10 H :    0.049868

  Mayer bond orders larger than 0.1
B(  0-N ,  1-C ) :   2.9834 B(  1-C ,  2-C ) :   1.1752 B(  2-C ,  3-N ) :   1.8339
B(  2-C ,  4-O ) :   0.1500 B(  2-C ,  6-C ) :   1.0259 B(  3-N ,  4-O ) :   1.0319
B(  4-O ,  5-C ) :   0.9145 B(  5-C ,  6-C ) :   1.0917 B(  5-C ,  7-H ) :   0.9465
B(  5-C ,  8-H ) :   0.9466 B(  6-C ,  9-H ) :   0.9191 B(  6-C , 10-H ) :   0.9189

FINAL SINGLE POINT ENERGY      -338.828033357731

DIPOLE MOMENT
-------------
                                X             Y             Z
Electronic contribution:     -3.57450      -4.00326       0.17900
Nuclear contribution   :      4.94524       5.33895      -0.26476
                        -----------------------------------------
Total Dipole Moment    :      1.37074       1.33569      -0.08575
                        -----------------------------------------
Magnitude (a.u.)       :      1.91582
Magnitude (Debye)      :      4.86962

                             ****ORCA TERMINATED NORMALLY****
TOTAL RUN TIME: 0 days 0 hours 0 minutes 5 seconds 463 msec
