                         Program Version 3.0.3 - RELEASE   -
|  1> ! RI PBE def2-SVP def2-SVP/J NBO PAL2
|  2> % maxcore 2000
|  3> % output
|  4>     # printlevel mini
|  5>     print[ P_Basis ] 0
|  6>     print[ P_SCFInfo ] 1
|  7>     print[ P_SCFIterInfo ] 1
|  8>     print[ P_OrbEn ] 0
|  9>     print[ P_Cartesian ] 0
| 10> end
| 11> *xyz 0 1
| 12>  N        1.0449650000    -0.4098470000     0.4580210000
| 13>  C        2.4380110000    -0.1446400000     0.1166930000
| 14>  C        2.9707070000     1.0203880000     0.8794790000
| 15>  N        4.0837050000     0.9539730000     1.4876040000
| 16>  O        4.3878080000     2.1719620000     2.0643630000
| 17>  C        3.2225630000     3.0097660000     2.0092990000
| 18>  C        2.3337190000     2.3774510000     0.9515110000
| 19>  H        0.7916170000    -1.3490190000     0.1815330000
| 20>  H        0.4243490000     0.2173430000    -0.0379720000
| 21>  H        2.5961460000     0.0404360000    -0.9585960000
| 22>  H        3.0429810000    -1.0126670000     0.3821420000
| 23>  H        3.5497650000     4.0237720000     1.7792340000
| 24>  H        2.7423460000     2.9994980000     2.9937070000
| 25>  H        2.3908410000     2.8764380000    -0.0232590000
| 26>  H        1.2846670000     2.3297470000     1.2468210000
| 27> *
| 28>
| 29>                          ****END OF INPUT****
 Total Charge           Charge          ....    0
 Multiplicity           Mult            ....    1
 Number of Electrons    NEL             ....   54
 Basis Dimension        Dim             ....  138

MULLIKEN ATOMIC CHARGES
-----------------------
   0 N :   -0.218528
   1 C :    0.159104
   2 C :   -0.232981
   3 N :    0.030653
   4 O :   -0.283175
   5 C :    0.202150
   6 C :    0.005161
   7 H :    0.095231
   8 H :    0.092880
   9 H :    0.013975
  10 H :    0.014266
  11 H :    0.025563
  12 H :    0.026685
  13 H :    0.032260
  14 H :    0.036753
Sum of atomic charges:   -0.0000000

LOEWDIN ATOMIC CHARGES
----------------------
   0 N :   -0.107591
   1 C :    0.006345
   2 C :   -0.065625
   3 N :   -0.002568
   4 O :   -0.103858
   5 C :    0.062473
   6 C :   -0.065531
   7 H :    0.056412
   8 H :    0.050434
   9 H :    0.013530
  10 H :    0.036519
  11 H :    0.024405
  12 H :    0.018750
  13 H :    0.037175
  14 H :    0.039130

  Mayer bond orders larger than 0.1
B(  0-N ,  1-C ) :   1.0905 B(  0-N ,  7-H ) :   0.9668 B(  0-N ,  8-H ) :   0.9670
B(  1-C ,  2-C ) :   1.0544 B(  1-C ,  9-H ) :   0.9100 B(  1-C , 10-H ) :   0.9090
B(  2-C ,  3-N ) :   1.9235 B(  2-C ,  4-O ) :   0.1156 B(  2-C ,  6-C ) :   1.0158
B(  3-N ,  4-O ) :   0.9684 B(  4-O ,  5-C ) :   0.9503 B(  5-C ,  6-C ) :   1.1133
B(  5-C , 11-H ) :   0.9427 B(  5-C , 12-H ) :   0.9430 B(  6-C , 13-H ) :   0.8996
B(  6-C , 14-H ) :   0.9180

FINAL SINGLE POINT ENERGY      -341.231394906235

DIPOLE MOMENT
-------------
                                X             Y             Z
Electronic contribution:      4.76228       0.35449       2.36677
Nuclear contribution   :     -5.99065      -0.07873      -3.27035
                        -----------------------------------------
Total Dipole Moment    :     -1.22837       0.27577      -0.90358
                        -----------------------------------------
Magnitude (a.u.)       :      1.54965
Magnitude (Debye)      :      3.93889

                             ****ORCA TERMINATED NORMALLY****
TOTAL RUN TIME: 0 days 0 hours 0 minutes 6 seconds 999 msec
