                         Program Version 3.0.3 - RELEASE   -
|  1> ! RI PBE def2-SVP def2-SVP/J NBO PAL2
|  2> % maxcore 2000
|  3> % output
|  4>     # printlevel mini
|  5>     print[ P_Basis ] 0
|  6>     print[ P_SCFInfo ] 1
|  7>     print[ P_SCFIterInfo ] 1
|  8>     print[ P_OrbEn ] 0
|  9>     print[ P_Cartesian ] 0
| 10> end
| 11> *xyz 0 1
| 12>  N        1.6859440000    -0.7486560000     0.4887600000
| 13>  C        2.3793160000     0.1834530000    -0.3822430000
| 14>  C        2.9830780000     1.2875000000     0.4369340000
| 15>  O        3.4496590000     2.4196110000    -0.2677370000
| 16>  C        2.3161070000     2.5871270000     0.5857580000
| 17>  C        2.5061740000     3.4264870000     1.7755120000
| 18>  C        1.5833220000     4.2555560000     2.2450910000
| 19>  H        1.3977030000    -1.5733360000    -0.0201330000
| 20>  H        0.8520840000    -0.3259670000     0.8772280000
| 21>  H        1.7604240000     0.6357390000    -1.1719550000
| 22>  H        3.1903870000    -0.3548130000    -0.8834390000
| 23>  H        3.6286160000     0.9542490000     1.2492920000
| 24>  H        1.3780130000     2.7319950000     0.0492560000
| 25>  H        3.4689430000     3.3316410000     2.2714580000
| 26>  H        0.6229960000     4.3703250000     1.7519620000
| 27>  H        1.7517450000     4.8462790000     3.1371670000
| 28> *
| 29>
| 30>                          ****END OF INPUT****
 Total Charge           Charge          ....    0
 Multiplicity           Mult            ....    1
 Number of Electrons    NEL             ....   54
 Basis Dimension        Dim             ....  143

MULLIKEN ATOMIC CHARGES
-----------------------
   0 N :   -0.222305
   1 C :    0.171188
   2 C :    0.006993
   3 O :   -0.271126
   4 C :    0.061842
   5 C :    0.041627
   6 C :   -0.026130
   7 H :    0.094223
   8 H :    0.091171
   9 H :   -0.011988
  10 H :    0.014564
  11 H :    0.014407
  12 H :   -0.005575
  13 H :   -0.002636
  14 H :    0.016826
  15 H :    0.026918
Sum of atomic charges:    0.0000000

LOEWDIN ATOMIC CHARGES
----------------------
   0 N :   -0.107482
   1 C :    0.001845
   2 C :    0.039869
   3 O :   -0.142308
   4 C :    0.039155
   5 C :   -0.033981
   6 C :   -0.053809
   7 H :    0.055334
   8 H :    0.052692
   9 H :    0.004155
  10 H :    0.029539
  11 H :    0.015417
  12 H :    0.015617
  13 H :    0.032971
  14 H :    0.022953
  15 H :    0.028034

  Mayer bond orders larger than 0.1
B(  0-N ,  1-C ) :   1.0824 B(  0-N ,  7-H ) :   0.9635 B(  0-N ,  8-H ) :   0.9708
B(  1-C ,  2-C ) :   1.0397 B(  1-C ,  9-H ) :   0.9079 B(  1-C , 10-H ) :   0.9157
B(  2-C ,  3-O ) :   0.9872 B(  2-C ,  4-C ) :   0.9953 B(  2-C , 11-H ) :   0.9289
B(  3-O ,  4-C ) :   0.9630 B(  4-C ,  5-C ) :   1.0696 B(  4-C , 12-H ) :   0.9280
B(  5-C ,  6-C ) :   1.9555 B(  5-C , 13-H ) :   0.9396 B(  6-C , 14-H ) :   0.9508
B(  6-C , 15-H ) :   0.9348

FINAL SINGLE POINT ENERGY      -325.205288333390

DIPOLE MOMENT
-------------
                                X             Y             Z
Electronic contribution:      2.58655       1.57952      -1.12003
Nuclear contribution   :     -3.35459      -1.96291       1.18715
                        -----------------------------------------
Total Dipole Moment    :     -0.76804      -0.38339       0.06713
                        -----------------------------------------
Magnitude (a.u.)       :      0.86104
Magnitude (Debye)      :      2.18858

                             ****ORCA TERMINATED NORMALLY****
TOTAL RUN TIME: 0 days 0 hours 0 minutes 6 seconds 712 msec
