                         Program Version 3.0.3 - RELEASE   -
|  1> ! RI PBE def2-SVP def2-SVP/J NBO PAL2
|  2> % maxcore 2000
|  3> % output
|  4>     # printlevel mini
|  5>     print[ P_Basis ] 0
|  6>     print[ P_SCFInfo ] 1
|  7>     print[ P_SCFIterInfo ] 1
|  8>     print[ P_OrbEn ] 0
|  9>     print[ P_Cartesian ] 0
| 10> end
| 11> *xyz 0 1
| 12>  N        3.0284160000     1.1375760000     0.7669700000
| 13>  C        2.4350080000     0.0286770000     0.0435880000
| 14>  C        2.9765420000    -0.0112130000    -1.3558050000
| 15>  O        2.2997240000    -0.8426400000    -2.2759030000
| 16>  C        2.2251740000     0.5651420000    -2.4812070000
| 17>  C        2.8830620000     1.1037690000    -3.6384960000
| 18>  C        3.4122940000     1.5783870000    -4.6055830000
| 19>  H        2.8037160000     1.0903960000     1.7514100000
| 20>  H        2.6839100000     2.0235420000     0.4190540000
| 21>  H        1.3355620000     0.0356220000    -0.0088400000
| 22>  H        2.7228710000    -0.9013470000     0.5442350000
| 23>  H        4.0617790000    -0.0241560000    -1.4383680000
| 24>  H        1.2457570000     0.9911110000    -2.2681020000
| 25>  H        3.8887050000     1.9906330000    -5.4635540000
| 26> *
| 27>
| 28>                          ****END OF INPUT****
 Total Charge           Charge          ....    0
 Multiplicity           Mult            ....    1
 Number of Electrons    NEL             ....   52
 Basis Dimension        Dim             ....  133

MULLIKEN ATOMIC CHARGES
-----------------------
   0 N :   -0.221235
   1 C :    0.159490
   2 C :    0.014867
   3 O :   -0.252607
   4 C :    0.022722
   5 C :    0.445568
   6 C :   -0.447293
   7 H :    0.098392
   8 H :    0.091837
   9 H :   -0.006252
  10 H :    0.018935
  11 H :    0.030270
  12 H :    0.036224
  13 H :    0.009082
Sum of atomic charges:   -0.0000000

LOEWDIN ATOMIC CHARGES
----------------------
   0 N :   -0.106295
   1 C :    0.000205
   2 C :    0.052123
   3 O :   -0.129232
   4 C :    0.029172
   5 C :   -0.029020
   6 C :   -0.055915
   7 H :    0.056880
   8 H :    0.053217
   9 H :    0.005816
  10 H :    0.031673
  11 H :    0.023118
  12 H :    0.030425
  13 H :    0.037833

  Mayer bond orders larger than 0.1
B(  0-N ,  1-C ) :   1.0809 B(  0-N ,  7-H ) :   0.9630 B(  0-N ,  8-H ) :   0.9704
B(  1-C ,  2-C ) :   1.0354 B(  1-C ,  9-H ) :   0.9070 B(  1-C , 10-H ) :   0.9153
B(  2-C ,  3-O ) :   0.9825 B(  2-C ,  4-C ) :   1.0204 B(  2-C , 11-H ) :   0.9348
B(  3-O ,  4-C ) :   1.0137 B(  4-C ,  5-C ) :   0.9509 B(  4-C , 12-H ) :   0.9091
B(  5-C ,  6-C ) :   2.3203 B(  6-C , 13-H ) :   1.0875

FINAL SINGLE POINT ENERGY      -323.956623022769

DIPOLE MOMENT
-------------
                                X             Y             Z
Electronic contribution:      0.08382      -1.05197      -5.29774
Nuclear contribution   :     -0.37094       1.69560       5.89633
                        -----------------------------------------
Total Dipole Moment    :     -0.28713       0.64364       0.59860
                        -----------------------------------------
Magnitude (a.u.)       :      0.92468
Magnitude (Debye)      :      2.35034

                             ****ORCA TERMINATED NORMALLY****
TOTAL RUN TIME: 0 days 0 hours 0 minutes 6 seconds 232 msec
