                         Program Version 3.0.3 - RELEASE   -
|  1> ! RI PBE def2-SVP def2-SVP/J NBO PAL2
|  2> % maxcore 2000
|  3> % output
|  4>     # printlevel mini
|  5>     print[ P_Basis ] 0
|  6>     print[ P_SCFInfo ] 1
|  7>     print[ P_SCFIterInfo ] 1
|  8>     print[ P_OrbEn ] 0
|  9>     print[ P_Cartesian ] 0
| 10> end
| 11> *xyz 0 1
| 12>  N        2.0440900000     0.7023270000    -1.0795380000
| 13>  C        1.9579590000    -0.3390070000    -0.0696690000
| 14>  C        3.1921410000    -1.1924950000    -0.1184050000
| 15>  O        3.1358430000    -2.4247010000     0.5833840000
| 16>  C        3.2244870000    -2.4608980000    -0.8405050000
| 17>  C        4.4879090000    -3.0361700000    -1.3992640000
| 18>  N        4.4363510000    -4.4871090000    -1.3305270000
| 19>  H        1.3021630000     1.3794590000    -0.9635980000
| 20>  H        1.9486870000     0.3085280000    -2.0073800000
| 21>  H        1.0788790000    -0.9955170000    -0.1505290000
| 22>  H        1.9079380000     0.1413550000     0.9127030000
| 23>  H        4.1282310000    -0.6463740000    -0.0050260000
| 24>  H        2.3086260000    -2.8037940000    -1.3226980000
| 25>  H        5.3376000000    -2.5847190000    -0.8651840000
| 26>  H        4.5692620000    -2.7418050000    -2.4513110000
| 27>  H        4.3919220000    -4.7807640000    -0.3618170000
| 28>  H        5.2719210000    -4.8960260000    -1.7283370000
| 29> *
| 30>
| 31>                          ****END OF INPUT****
 Total Charge           Charge          ....    0
 Multiplicity           Mult            ....    1
 Number of Electrons    NEL             ....   56
 Basis Dimension        Dim             ....  148

MULLIKEN ATOMIC CHARGES
-----------------------
   0 N :   -0.222841
   1 C :    0.174717
   2 C :    0.006678
   3 O :   -0.285345
   4 C :   -0.007402
   5 C :    0.187607
   6 N :   -0.223553
   7 H :    0.093389
   8 H :    0.087636
   9 H :   -0.014171
  10 H :    0.010584
  11 H :    0.007522
  12 H :    0.008486
  13 H :   -0.016761
  14 H :    0.010434
  15 H :    0.094679
  16 H :    0.088342
Sum of atomic charges:    0.0000000

LOEWDIN ATOMIC CHARGES
----------------------
   0 N :   -0.108554
   1 C :    0.002228
   2 C :    0.035191
   3 O :   -0.157893
   4 C :    0.033711
   5 C :    0.000602
   6 N :   -0.110119
   7 H :    0.054494
   8 H :    0.050878
   9 H :    0.004173
  10 H :    0.027293
  11 H :    0.013296
  12 H :    0.013865
  13 H :    0.006183
  14 H :    0.027493
  15 H :    0.054694
  16 H :    0.052466

  Mayer bond orders larger than 0.1
B(  0-N ,  1-C ) :   1.0778 B(  0-N ,  7-H ) :   0.9648 B(  0-N ,  8-H ) :   0.9710
B(  1-C ,  2-C ) :   1.0351 B(  1-C ,  9-H ) :   0.9089 B(  1-C , 10-H ) :   0.9175
B(  2-C ,  3-O ) :   0.9982 B(  2-C ,  4-C ) :   1.0247 B(  2-C , 11-H ) :   0.9249
B(  3-O ,  4-C ) :   0.9697 B(  4-C ,  5-C ) :   1.0523 B(  4-C , 12-H ) :   0.9252
B(  5-C ,  6-N ) :   1.0752 B(  5-C , 13-H ) :   0.9031 B(  5-C , 14-H ) :   0.9214
B(  6-N , 15-H ) :   0.9708 B(  6-N , 16-H ) :   0.9635

FINAL SINGLE POINT ENERGY      -342.441919760997

DIPOLE MOMENT
-------------
                                X             Y             Z
Electronic contribution:     -0.12111      -1.02049       2.16714
Nuclear contribution   :      0.12842       1.28058      -2.62902
                        -----------------------------------------
Total Dipole Moment    :      0.00730       0.26009      -0.46188
                        -----------------------------------------
Magnitude (a.u.)       :      0.53013
Magnitude (Debye)      :      1.34748

                             ****ORCA TERMINATED NORMALLY****
TOTAL RUN TIME: 0 days 0 hours 0 minutes 7 seconds 327 msec
