                         Program Version 3.0.3 - RELEASE   -
|  1> ! RI PBE def2-SVP def2-SVP/J NBO PAL2
|  2> % maxcore 2000
|  3> % output
|  4>     # printlevel mini
|  5>     print[ P_Basis ] 0
|  6>     print[ P_SCFInfo ] 1
|  7>     print[ P_SCFIterInfo ] 1
|  8>     print[ P_OrbEn ] 0
|  9>     print[ P_Cartesian ] 0
| 10> end
| 11> *xyz 0 1
| 12>  N        3.2019170000    -1.0968500000     0.7101940000
| 13>  C        2.3644110000    -0.1590020000    -0.0168040000
| 14>  C        3.1887970000     1.0165990000    -0.4556800000
| 15>  O        2.4742210000     2.1560490000    -0.9085260000
| 16>  C        3.2191780000     2.2635790000     0.3047890000
| 17>  C        4.3798940000     3.2065340000     0.2482230000
| 18>  O        3.9601600000     4.5523010000     0.2555980000
| 19>  H        2.7174720000    -1.9708940000     0.8634600000
| 20>  H        3.4506450000    -0.7270460000     1.6191600000
| 21>  H        1.4915410000     0.2158940000     0.5380420000
| 22>  H        1.9818130000    -0.6634230000    -0.9096490000
| 23>  H        4.0645470000     0.7620800000    -1.0517320000
| 24>  H        2.5920200000     2.3418020000     1.1933530000
| 25>  H        4.9850460000     2.9799900000    -0.6398130000
| 26>  H        5.0115240000     3.0750190000     1.1308730000
| 27>  H        3.3780130000     4.6754800000    -0.5002980000
| 28> *
| 29>
| 30>                          ****END OF INPUT****
 Total Charge           Charge          ....    0
 Multiplicity           Mult            ....    1
 Number of Electrons    NEL             ....   56
 Basis Dimension        Dim             ....  143

MULLIKEN ATOMIC CHARGES
-----------------------
   0 N :   -0.220880
   1 C :    0.168034
   2 C :    0.002604
   3 O :   -0.285085
   4 C :   -0.041082
   5 C :    0.291561
   6 O :   -0.293943
   7 H :    0.095948
   8 H :    0.090048
   9 H :   -0.010812
  10 H :    0.013245
  11 H :    0.014684
  12 H :    0.011100
  13 H :   -0.007976
  14 H :    0.013343
  15 H :    0.159212
Sum of atomic charges:   -0.0000000

LOEWDIN ATOMIC CHARGES
----------------------
   0 N :   -0.107133
   1 C :    0.001705
   2 C :    0.037197
   3 O :   -0.158414
   4 C :    0.015894
   5 C :    0.047962
   6 O :   -0.119959
   7 H :    0.055739
   8 H :    0.052095
   9 H :    0.005036
  10 H :    0.029265
  11 H :    0.015460
  12 H :    0.014379
  13 H :    0.011368
  14 H :    0.027375
  15 H :    0.072031

  Mayer bond orders larger than 0.1
B(  0-N ,  1-C ) :   1.0884 B(  0-N ,  7-H ) :   0.9633 B(  0-N ,  8-H ) :   0.9708
B(  1-C ,  2-C ) :   1.0374 B(  1-C ,  9-H ) :   0.9089 B(  1-C , 10-H ) :   0.9149
B(  2-C ,  3-O ) :   0.9923 B(  2-C ,  4-C ) :   1.0186 B(  2-C , 11-H ) :   0.9223
B(  3-O ,  4-C ) :   0.9622 B(  4-C ,  5-C ) :   1.0519 B(  4-C , 12-H ) :   0.9194
B(  5-C ,  6-O ) :   1.0437 B(  5-C , 13-H ) :   0.9122 B(  5-C , 14-H ) :   0.9248
B(  6-O , 15-H ) :   0.9825

FINAL SINGLE POINT ENERGY      -362.282188973223

DIPOLE MOMENT
-------------
                                X             Y             Z
Electronic contribution:     -0.53187       3.82322      -1.51224
Nuclear contribution   :      0.35154      -4.57485       1.87449
                        -----------------------------------------
Total Dipole Moment    :     -0.18033      -0.75163       0.36225
                        -----------------------------------------
Magnitude (a.u.)       :      0.85364
Magnitude (Debye)      :      2.16978

                             ****ORCA TERMINATED NORMALLY****
TOTAL RUN TIME: 0 days 0 hours 0 minutes 6 seconds 977 msec
