                         Program Version 3.0.3 - RELEASE   -
|  1> ! RI PBE def2-SVP def2-SVP/J NBO PAL2
|  2> % maxcore 2000
|  3> % output
|  4>     # printlevel mini
|  5>     print[ P_Basis ] 0
|  6>     print[ P_SCFInfo ] 1
|  7>     print[ P_SCFIterInfo ] 1
|  8>     print[ P_OrbEn ] 0
|  9>     print[ P_Cartesian ] 0
| 10> end
| 11> *xyz 0 1
| 12>  N        2.2631960000    -0.9553510000     1.0357440000
| 13>  C        2.2651530000     0.1324550000     0.0687860000
| 14>  C        2.9649790000     1.3322300000     0.6580440000
| 15>  O        2.9199030000     2.4785510000    -0.2054460000
| 16>  C        2.5226590000     3.3292390000     0.8777730000
| 17>  C        2.2741140000     2.1279190000     1.7902290000
| 18>  N        2.8058400000     2.2106210000     3.1212200000
| 19>  H        2.0401200000    -1.8341530000     0.5885540000
| 20>  H        1.5561700000    -0.8019700000     1.7438610000
| 21>  H        1.2653280000     0.4427530000    -0.2707080000
| 22>  H        2.8158660000    -0.1890020000    -0.8201020000
| 23>  H        3.9986780000     1.0646810000     0.9213320000
| 24>  H        1.6706580000     3.9633170000     0.6191020000
| 25>  H        3.3503000000     3.9620070000     1.2247630000
| 26>  H        1.2097710000     1.8808880000     1.8524680000
| 27>  H        3.8062520000     2.3703320000     3.0988800000
| 28>  H        2.6510930000     1.3522040000     3.6344910000
| 29> *
| 30>
| 31>                          ****END OF INPUT****
 Total Charge           Charge          ....    0
 Multiplicity           Mult            ....    1
 Number of Electrons    NEL             ....   56
 Basis Dimension        Dim             ....  148

MULLIKEN ATOMIC CHARGES
-----------------------
   0 N :   -0.220834
   1 C :    0.132741
   2 C :    0.125318
   3 O :   -0.351103
   4 C :    0.260279
   5 C :   -0.160376
   6 N :   -0.125484
   7 H :    0.095025
   8 H :    0.086310
   9 H :   -0.016571
  10 H :    0.013596
  11 H :   -0.027466
  12 H :    0.015372
  13 H :   -0.005661
  14 H :   -0.000601
  15 H :    0.087151
  16 H :    0.092304
Sum of atomic charges:    0.0000000

LOEWDIN ATOMIC CHARGES
----------------------
   0 N :   -0.109037
   1 C :   -0.003453
   2 C :    0.038535
   3 O :   -0.177354
   4 C :    0.082714
   5 C :   -0.022067
   6 N :   -0.085490
   7 H :    0.055773
   8 H :    0.048652
   9 H :   -0.000500
  10 H :    0.027104
  11 H :    0.002103
  12 H :    0.011813
  13 H :    0.006310
  14 H :    0.019908
  15 H :    0.050456
  16 H :    0.054531

  Mayer bond orders larger than 0.1
B(  0-N ,  1-C ) :   1.0860 B(  0-N ,  7-H ) :   0.9643 B(  0-N ,  8-H ) :   0.9709
B(  1-C ,  2-C ) :   1.0469 B(  1-C ,  9-H ) :   0.9100 B(  1-C , 10-H ) :   0.9216
B(  2-C ,  3-O ) :   1.0460 B(  2-C ,  5-C ) :   1.0074 B(  2-C , 11-H ) :   0.8821
B(  3-O ,  4-C ) :   1.0267 B(  4-C ,  5-C ) :   1.0746 B(  4-C , 12-H ) :   0.9369
B(  4-C , 13-H ) :   0.9190 B(  5-C ,  6-N ) :   1.1531 B(  5-C , 14-H ) :   0.8955
B(  6-N , 15-H ) :   0.9584 B(  6-N , 16-H ) :   0.9663

FINAL SINGLE POINT ENERGY      -342.442969967033

DIPOLE MOMENT
-------------
                                X             Y             Z
Electronic contribution:      0.89924       1.91076      -1.45688
Nuclear contribution   :     -1.26845      -2.56361       1.84877
                        -----------------------------------------
Total Dipole Moment    :     -0.36921      -0.65285       0.39188
                        -----------------------------------------
Magnitude (a.u.)       :      0.84623
Magnitude (Debye)      :      2.15095

                             ****ORCA TERMINATED NORMALLY****
TOTAL RUN TIME: 0 days 0 hours 0 minutes 7 seconds 536 msec
