                         Program Version 3.0.3 - RELEASE   -
|  1> ! RI PBE def2-SVP def2-SVP/J NBO PAL2
|  2> % maxcore 2000
|  3> % output
|  4>     # printlevel mini
|  5>     print[ P_Basis ] 0
|  6>     print[ P_SCFInfo ] 1
|  7>     print[ P_SCFIterInfo ] 1
|  8>     print[ P_OrbEn ] 0
|  9>     print[ P_Cartesian ] 0
| 10> end
| 11> *xyz 0 1
| 12>  N        2.4948800000     0.3979310000    -1.7406890000
| 13>  C        2.5609160000     0.1077660000    -0.3179770000
| 14>  C        3.1826630000     1.2356250000     0.4700870000
| 15>  O        3.3491260000     0.9244630000     1.8249070000
| 16>  C        4.2815190000     2.0853100000    -0.0871180000
| 17>  C        2.9270860000     2.6837150000     0.1349640000
| 18>  N        2.7539100000     3.6926630000     1.1381180000
| 19>  H        1.8252770000    -0.2058950000    -2.1972140000
| 20>  H        3.3900650000     0.2302210000    -2.1815230000
| 21>  H        3.1110700000    -0.8136610000    -0.0728310000
| 22>  H        1.5353670000    -0.0363880000     0.0445820000
| 23>  H        2.4824110000     0.9478290000     2.2434380000
| 24>  H        4.6161210000     1.9354860000    -1.1061960000
| 25>  H        5.0619330000     2.3526620000     0.6164750000
| 26>  H        2.3455680000     2.8561980000    -0.7639410000
| 27>  H        3.3017640000     3.4668380000     1.9598300000
| 28>  H        1.7841150000     3.7468460000     1.4274900000
| 29> *
| 30>
| 31>                          ****END OF INPUT****
 Total Charge           Charge          ....    0
 Multiplicity           Mult            ....    1
 Number of Electrons    NEL             ....   56
 Basis Dimension        Dim             ....  148

MULLIKEN ATOMIC CHARGES
-----------------------
   0 N :   -0.211390
   1 C :    0.172877
   2 C :   -0.091315
   3 O :   -0.236923
   4 C :    0.013705
   5 C :   -0.070236
   6 N :   -0.106880
   7 H :    0.093047
   8 H :    0.092912
   9 H :   -0.005543
  10 H :   -0.016574
  11 H :    0.146841
  12 H :    0.018199
  13 H :    0.026469
  14 H :    0.018980
  15 H :    0.072403
  16 H :    0.083428
Sum of atomic charges:   -0.0000000

LOEWDIN ATOMIC CHARGES
----------------------
   0 N :   -0.103133
   1 C :    0.001365
   2 C :   -0.026434
   3 O :   -0.087328
   4 C :   -0.052789
   5 C :   -0.017479
   6 N :   -0.080251
   7 H :    0.056349
   8 H :    0.052834
   9 H :    0.002883
  10 H :    0.015990
  11 H :    0.065333
  12 H :    0.023334
  13 H :    0.030497
  14 H :    0.021168
  15 H :    0.045619
  16 H :    0.052042

  Mayer bond orders larger than 0.1
B(  0-N ,  1-C ) :   1.1038 B(  0-N ,  7-H ) :   0.9633 B(  0-N ,  8-H ) :   0.9647
B(  1-C ,  2-C ) :   1.0080 B(  1-C ,  9-H ) :   0.9179 B(  1-C , 10-H ) :   0.9152
B(  2-C ,  3-O ) :   1.0922 B(  2-C ,  4-C ) :   0.9718 B(  2-C ,  5-C ) :   0.8507
B(  3-O , 11-H ) :   0.9780 B(  4-C ,  5-C ) :   0.9816 B(  4-C , 12-H ) :   0.9320
B(  4-C , 13-H ) :   0.9268 B(  5-C ,  6-N ) :   1.1696 B(  5-C , 14-H ) :   0.9263
B(  6-N , 15-H ) :   0.9479 B(  6-N , 16-H ) :   0.9680

FINAL SINGLE POINT ENERGY      -342.445391679139

DIPOLE MOMENT
-------------
                                X             Y             Z
Electronic contribution:      0.42338       0.39976       2.11087
Nuclear contribution   :     -1.05950      -1.12523      -2.13463
                        -----------------------------------------
Total Dipole Moment    :     -0.63611      -0.72547      -0.02376
                        -----------------------------------------
Magnitude (a.u.)       :      0.96515
Magnitude (Debye)      :      2.45321

                             ****ORCA TERMINATED NORMALLY****
TOTAL RUN TIME: 0 days 0 hours 0 minutes 7 seconds 617 msec
