                         Program Version 3.0.3 - RELEASE   -
|  1> ! RI PBE def2-SVP def2-SVP/J NBO PAL2
|  2> % maxcore 2000
|  3> % output
|  4>     # printlevel mini
|  5>     print[ P_Basis ] 0
|  6>     print[ P_SCFInfo ] 1
|  7>     print[ P_SCFIterInfo ] 1
|  8>     print[ P_OrbEn ] 0
|  9>     print[ P_Cartesian ] 0
| 10> end
| 11> *xyz 0 1
| 12>  N        2.3129160000    -1.3283900000     0.1087510000
| 13>  C        2.5383860000     0.0965430000    -0.0610480000
| 14>  C        3.0277490000     0.3591830000    -1.4615650000
| 15>  O        3.2314690000     1.7524220000    -1.7448850000
| 16>  C        4.4617220000     1.4729670000    -2.4259760000
| 17>  C        4.4907930000     0.0625530000    -1.8297480000
| 18>  O        4.8158690000    -1.0383110000    -2.6181020000
| 19>  H        1.9231580000    -1.5251910000     1.0207160000
| 20>  H        3.1839390000    -1.8408890000     0.0390000000
| 21>  H        3.2550290000     0.5405040000     0.6476590000
| 22>  H        1.5877240000     0.6214980000     0.0747240000
| 23>  H        2.3322530000    -0.0980670000    -2.1829580000
| 24>  H        5.2565960000     2.1727590000    -2.1570110000
| 25>  H        4.3320900000     1.4677660000    -3.5174730000
| 26>  H        5.1275000000     0.0064000000    -0.9436730000
| 27>  H        4.2203270000    -1.0636380000    -3.3730210000
| 28> *
| 29>
| 30>                          ****END OF INPUT****
 Total Charge           Charge          ....    0
 Multiplicity           Mult            ....    1
 Number of Electrons    NEL             ....   56
 Basis Dimension        Dim             ....  143

MULLIKEN ATOMIC CHARGES
-----------------------
   0 N :   -0.221450
   1 C :    0.141907
   2 C :    0.064883
   3 O :   -0.342844
   4 C :    0.224555
   5 C :    0.013251
   6 O :   -0.232388
   7 H :    0.093052
   8 H :    0.094091
   9 H :   -0.015457
  10 H :    0.017512
  11 H :   -0.014415
  12 H :    0.020708
  13 H :   -0.005627
  14 H :    0.005944
  15 H :    0.156278
Sum of atomic charges:   -0.0000000

LOEWDIN ATOMIC CHARGES
----------------------
   0 N :   -0.108257
   1 C :   -0.001084
   2 C :    0.039652
   3 O :   -0.171697
   4 C :    0.064788
   5 C :    0.019017
   6 O :   -0.093118
   7 H :    0.055511
   8 H :    0.053116
   9 H :   -0.000986
  10 H :    0.028290
  11 H :    0.005808
  12 H :    0.013493
  13 H :    0.005246
  14 H :    0.022598
  15 H :    0.067626

  Mayer bond orders larger than 0.1
B(  0-N ,  1-C ) :   1.0802 B(  0-N ,  7-H ) :   0.9626 B(  0-N ,  8-H ) :   0.9692
B(  1-C ,  2-C ) :   1.0649 B(  1-C ,  9-H ) :   0.9057 B(  1-C , 10-H ) :   0.9204
B(  2-C ,  3-O ) :   1.0381 B(  2-C ,  5-C ) :   1.0179 B(  2-C , 11-H ) :   0.8853
B(  3-O ,  4-C ) :   1.0237 B(  4-C ,  5-C ) :   1.0517 B(  4-C , 12-H ) :   0.9372
B(  4-C , 13-H ) :   0.9152 B(  5-C ,  6-O ) :   1.1237 B(  5-C , 14-H ) :   0.8938
B(  6-O , 15-H ) :   0.9722

FINAL SINGLE POINT ENERGY      -362.283487445539

DIPOLE MOMENT
-------------
                                X             Y             Z
Electronic contribution:      0.91332       0.89554      -2.17321
Nuclear contribution   :     -0.75450      -1.13227       2.36823
                        -----------------------------------------
Total Dipole Moment    :      0.15882      -0.23673       0.19502
                        -----------------------------------------
Magnitude (a.u.)       :      0.34539
Magnitude (Debye)      :      0.87791

                             ****ORCA TERMINATED NORMALLY****
TOTAL RUN TIME: 0 days 0 hours 0 minutes 7 seconds 148 msec
