                         Program Version 3.0.3 - RELEASE   -
|  1> ! RI PBE def2-SVP def2-SVP/J NBO PAL2
|  2> % maxcore 2000
|  3> % output
|  4>     # printlevel mini
|  5>     print[ P_Basis ] 0
|  6>     print[ P_SCFInfo ] 1
|  7>     print[ P_SCFIterInfo ] 1
|  8>     print[ P_OrbEn ] 0
|  9>     print[ P_Cartesian ] 0
| 10> end
| 11> *xyz 0 1
| 12>  N        3.7480550000     0.4226170000    -1.0379230000
| 13>  C        2.6771290000    -0.0992670000    -0.2043770000
| 14>  C        3.0201920000    -0.0437460000     1.2618130000
| 15>  O        2.0408360000    -0.6709720000     2.0240180000
| 16>  C        4.4428630000    -0.1225260000     1.7524390000
| 17>  C        3.6597640000     1.1591510000     1.8639610000
| 18>  O        3.1244720000     1.5341870000     3.0999110000
| 19>  H        3.3912690000     0.6986870000    -1.9420320000
| 20>  H        4.4529430000    -0.2843830000    -1.2026970000
| 21>  H        2.3917500000    -1.1352270000    -0.4368940000
| 22>  H        1.7835560000     0.5132000000    -0.3573280000
| 23>  H        1.9200180000    -0.1265880000     2.8132780000
| 24>  H        5.2645640000    -0.1408580000     1.0474490000
| 25>  H        4.5845940000    -0.6965900000     2.6610290000
| 26>  H        3.9347320000     1.9760410000     1.2033470000
| 27>  H        3.8449660000     1.6971760000     3.7136070000
| 28> *
| 29>
| 30>                          ****END OF INPUT****
 Total Charge           Charge          ....    0
 Multiplicity           Mult            ....    1
 Number of Electrons    NEL             ....   56
 Basis Dimension        Dim             ....  143

MULLIKEN ATOMIC CHARGES
-----------------------
   0 N :   -0.217804
   1 C :    0.174299
   2 C :   -0.081009
   3 O :   -0.222722
   4 C :   -0.007725
   5 C :    0.046683
   6 O :   -0.252789
   7 H :    0.093827
   8 H :    0.094233
   9 H :    0.001691
  10 H :    0.002541
  11 H :    0.146761
  12 H :    0.017998
  13 H :    0.014896
  14 H :    0.017727
  15 H :    0.171395
Sum of atomic charges:    0.0000000

LOEWDIN ATOMIC CHARGES
----------------------
   0 N :   -0.105798
   1 C :    0.010823
   2 C :   -0.005110
   3 O :   -0.087752
   4 C :   -0.081300
   5 C :    0.019843
   6 O :   -0.091890
   7 H :    0.056959
   8 H :    0.053052
   9 H :    0.008475
  10 H :    0.024676
  11 H :    0.058424
  12 H :    0.023577
  13 H :    0.027059
  14 H :    0.010739
  15 H :    0.078223

  Mayer bond orders larger than 0.1
B(  0-N ,  1-C ) :   1.1018 B(  0-N ,  7-H ) :   0.9650 B(  0-N ,  8-H ) :   0.9640
B(  1-C ,  2-C ) :   1.0116 B(  1-C ,  9-H ) :   0.9250 B(  1-C , 10-H ) :   0.9195
B(  2-C ,  3-O ) :   1.1662 B(  2-C ,  4-C ) :   0.9572 B(  2-C ,  5-C ) :   0.8957
B(  3-O , 11-H ) :   0.9484 B(  4-C ,  5-C ) :   0.9726 B(  4-C , 12-H ) :   0.9181
B(  4-C , 13-H ) :   0.9169 B(  5-C ,  6-O ) :   1.0965 B(  5-C , 14-H ) :   0.9307
B(  6-O , 15-H ) :   0.9752

FINAL SINGLE POINT ENERGY      -362.289177340033

DIPOLE MOMENT
-------------
                                X             Y             Z
Electronic contribution:     -1.75343       0.53156       3.48282
Nuclear contribution   :      2.35805      -0.35013      -3.67598
                        -----------------------------------------
Total Dipole Moment    :      0.60463       0.18143      -0.19317
                        -----------------------------------------
Magnitude (a.u.)       :      0.66016
Magnitude (Debye)      :      1.67798

                             ****ORCA TERMINATED NORMALLY****
TOTAL RUN TIME: 0 days 0 hours 0 minutes 7 seconds 201 msec
