                         Program Version 3.0.3 - RELEASE   -
|  1> ! RI PBE def2-SVP def2-SVP/J NBO PAL2
|  2> % maxcore 2000
|  3> % output
|  4>     # printlevel mini
|  5>     print[ P_Basis ] 0
|  6>     print[ P_SCFInfo ] 1
|  7>     print[ P_SCFIterInfo ] 1
|  8>     print[ P_OrbEn ] 0
|  9>     print[ P_Cartesian ] 0
| 10> end
| 11> *xyz 0 1
| 12>  N        0.9517670000     0.1818120000    -0.1914140000
| 13>  C        2.0879620000     0.1009900000    -0.0382700000
| 14>  C        3.5506350000     0.0236170000     0.1442380000
| 15>  O        3.9186450000    -1.1481600000     0.8365400000
| 16>  C        4.4649680000    -0.8141630000     2.1072650000
| 17>  C        4.5819600000     0.6712800000     2.0976310000
| 18>  C        4.0657930000     1.1608780000     0.9836810000
| 19>  H        3.9974350000     0.0059780000    -0.8590000000
| 20>  H        5.4317240000    -1.3185870000     2.2165230000
| 21>  H        3.8058230000    -1.1704710000     2.9103510000
| 22>  H        5.0179650000     1.2412950000     2.9071610000
| 23>  H        3.9796330000     2.1971430000     0.6894050000
| 24> *
| 25>
| 26>                          ****END OF INPUT****
 Total Charge           Charge          ....    0
 Multiplicity           Mult            ....    1
 Number of Electrons    NEL             ....   50
 Basis Dimension        Dim             ....  123

MULLIKEN ATOMIC CHARGES
-----------------------
   0 N :    0.045974
   1 C :   -0.169143
   2 C :    0.152560
   3 O :   -0.334676
   4 C :    0.279377
   5 C :   -0.103397
   6 C :   -0.038004
   7 H :    0.052405
   8 H :    0.034916
   9 H :    0.034256
  10 H :    0.022421
  11 H :    0.023310
Sum of atomic charges:   -0.0000000

LOEWDIN ATOMIC CHARGES
----------------------
   0 N :   -0.051211
   1 C :   -0.052676
   2 C :    0.039332
   3 O :   -0.132268
   4 C :    0.079814
   5 C :   -0.028074
   6 C :   -0.030411
   7 H :    0.046322
   8 H :    0.027715
   9 H :    0.026294
  10 H :    0.037156
  11 H :    0.038007

  Mayer bond orders larger than 0.1
B(  0-N ,  1-C ) :   3.0887 B(  1-C ,  2-C ) :   0.9686 B(  2-C ,  3-O ) :   1.1149
B(  2-C ,  6-C ) :   1.0403 B(  2-C ,  7-H ) :   0.8768 B(  3-O ,  4-C ) :   0.9843
B(  4-C ,  5-C ) :   1.0300 B(  4-C ,  8-H ) :   0.9274 B(  4-C ,  9-H ) :   0.9183
B(  5-C ,  6-C ) :   1.8626 B(  5-C , 10-H ) :   0.9796 B(  6-C , 11-H ) :   0.9891

FINAL SINGLE POINT ENERGY      -322.821897345908

DIPOLE MOMENT
-------------
                                X             Y             Z
Electronic contribution:     -3.39724      -0.47726      -2.69353
Nuclear contribution   :      4.88767       0.93659       3.31634
                        -----------------------------------------
Total Dipole Moment    :      1.49043       0.45933       0.62281
                        -----------------------------------------
Magnitude (a.u.)       :      1.67936
Magnitude (Debye)      :      4.26860

                             ****ORCA TERMINATED NORMALLY****
TOTAL RUN TIME: 0 days 0 hours 0 minutes 5 seconds 773 msec
