                         Program Version 3.0.3 - RELEASE   -
|  1> ! RI PBE def2-SVP def2-SVP/J NBO PAL2
|  2> % maxcore 2000
|  3> % output
|  4>     # printlevel mini
|  5>     print[ P_Basis ] 0
|  6>     print[ P_SCFInfo ] 1
|  7>     print[ P_SCFIterInfo ] 1
|  8>     print[ P_OrbEn ] 0
|  9>     print[ P_Cartesian ] 0
| 10> end
| 11> *xyz 0 1
| 12>  N        1.0738670000     0.3785790000    -0.5181690000
| 13>  C        2.3673630000     0.0338440000     0.0441760000
| 14>  C        2.9335340000     1.1255710000     0.9357220000
| 15>  O        4.1864350000     0.7067850000     1.4470530000
| 16>  C        2.9856740000     2.5810900000     0.4129420000
| 17>  C        2.5578550000     3.0587610000     1.8148310000
| 18>  C        2.0864100000     1.6228690000     2.1149300000
| 19>  H        0.5924370000    -0.4478980000    -0.8448500000
| 20>  H        1.1721490000     0.9973150000    -1.3123700000
| 21>  H        3.1284710000    -0.2140310000    -0.7171350000
| 22>  H        2.2504090000    -0.8584780000     0.6664640000
| 23>  H        4.7944010000     0.6109560000     0.7075760000
| 24>  H        2.2101660000     2.7793040000    -0.3300650000
| 25>  H        3.9494840000     2.9190540000     0.0248100000
| 26>  H        1.8099910000     3.8510060000     1.8610220000
| 27>  H        3.4146130000     3.3425700000     2.4261160000
| 28>  H        1.0256600000     1.4856920000     1.9010340000
| 29>  H        2.3368700000     1.1887000000     3.0834330000
| 30> *
| 31>
| 32>                          ****END OF INPUT****
 Total Charge           Charge          ....    0
 Multiplicity           Mult            ....    1
 Number of Electrons    NEL             ....   56
 Basis Dimension        Dim             ....  153

MULLIKEN ATOMIC CHARGES
-----------------------
   0 N :   -0.206481
   1 C :    0.147526
   2 C :   -0.232239
   3 O :   -0.248905
   4 C :    0.103470
   5 C :   -0.027936
   6 C :    0.127632
   7 H :    0.093899
   8 H :    0.091801
   9 H :   -0.029747
  10 H :    0.007590
  11 H :    0.148020
  12 H :   -0.008516
  13 H :   -0.009794
  14 H :    0.008363
  15 H :    0.020365
  16 H :    0.011093
  17 H :    0.003859
Sum of atomic charges:   -0.0000000

LOEWDIN ATOMIC CHARGES
----------------------
   0 N :   -0.103890
   1 C :   -0.009619
   2 C :    0.011928
   3 O :   -0.099940
   4 C :   -0.044735
   5 C :   -0.032382
   6 C :   -0.028585
   7 H :    0.056399
   8 H :    0.049798
   9 H :   -0.005316
  10 H :    0.025212
  11 H :    0.061402
  12 H :    0.019794
  13 H :    0.012391
  14 H :    0.016647
  15 H :    0.025955
  16 H :    0.025962
  17 H :    0.018977

  Mayer bond orders larger than 0.1
B(  0-N ,  1-C ) :   1.0954 B(  0-N ,  7-H ) :   0.9614 B(  0-N ,  8-H ) :   0.9633
B(  1-C ,  2-C ) :   1.0103 B(  1-C ,  9-H ) :   0.9117 B(  1-C , 10-H ) :   0.9225
B(  2-C ,  3-O ) :   1.0336 B(  2-C ,  4-C ) :   1.0574 B(  2-C ,  6-C ) :   1.0444
B(  3-O , 11-H ) :   0.9798 B(  4-C ,  5-C ) :   1.1352 B(  4-C , 12-H ) :   0.8987
B(  4-C , 13-H ) :   0.9169 B(  5-C ,  6-C ) :   1.1386 B(  5-C , 14-H ) :   0.9301
B(  5-C , 15-H ) :   0.9284 B(  6-C , 16-H ) :   0.9046 B(  6-C , 17-H ) :   0.9142

FINAL SINGLE POINT ENERGY      -326.434351786001

DIPOLE MOMENT
-------------
                                X             Y             Z
Electronic contribution:      1.92067      -1.24770       0.94280
Nuclear contribution   :     -1.90899       1.04659      -1.90648
                        -----------------------------------------
Total Dipole Moment    :      0.01168      -0.20111      -0.96368
                        -----------------------------------------
Magnitude (a.u.)       :      0.98451
Magnitude (Debye)      :      2.50243

                             ****ORCA TERMINATED NORMALLY****
TOTAL RUN TIME: 0 days 0 hours 0 minutes 8 seconds 91 msec
