                         Program Version 3.0.3 - RELEASE   -
|  1> ! RI PBE def2-SVP def2-SVP/J NBO PAL2
|  2> % maxcore 2000
|  3> % output
|  4>     # printlevel mini
|  5>     print[ P_Basis ] 0
|  6>     print[ P_SCFInfo ] 1
|  7>     print[ P_SCFIterInfo ] 1
|  8>     print[ P_OrbEn ] 0
|  9>     print[ P_Cartesian ] 0
| 10> end
| 11> *xyz 0 1
| 12>  N        2.7703150000     1.4871790000    -0.1579070000
| 13>  C        2.4239790000     0.0999240000     0.1079630000
| 14>  C        3.0196780000    -0.7964340000    -0.9696840000
| 15>  O        2.5444780000    -2.1257470000    -0.8069650000
| 16>  C        3.6276200000    -3.0396940000    -0.7819450000
| 17>  C        4.8529790000    -2.1878960000    -0.8089850000
| 18>  C        4.5085490000    -0.9150240000    -0.9234370000
| 19>  H        2.5434640000     2.0712290000     0.6357280000
| 20>  H        2.2398110000     1.8417420000    -0.9445830000
| 21>  H        1.3440580000    -0.1014780000     0.1537480000
| 22>  H        2.8489440000    -0.1905300000     1.0728730000
| 23>  H        2.6913130000    -0.4113220000    -1.9513670000
| 24>  H        3.5730450000    -3.7149010000    -1.6490870000
| 25>  H        3.5618350000    -3.6616680000     0.1206540000
| 26>  H        5.8579750000    -2.5849520000    -0.7470670000
| 27>  H        5.1622570000    -0.0555170000    -0.9712270000
| 28> *
| 29>
| 30>                          ****END OF INPUT****
 Total Charge           Charge          ....    0
 Multiplicity           Mult            ....    1
 Number of Electrons    NEL             ....   54
 Basis Dimension        Dim             ....  143

MULLIKEN ATOMIC CHARGES
-----------------------
   0 N :   -0.224858
   1 C :    0.115372
   2 C :    0.134846
   3 O :   -0.359055
   4 C :    0.265648
   5 C :   -0.119183
   6 C :   -0.034764
   7 H :    0.094538
   8 H :    0.089968
   9 H :    0.008297
  10 H :   -0.005491
  11 H :   -0.004097
  12 H :    0.018485
  13 H :    0.018796
  14 H :    0.001227
  15 H :    0.000270
Sum of atomic charges:   -0.0000000

LOEWDIN ATOMIC CHARGES
----------------------
   0 N :   -0.111093
   1 C :   -0.000743
   2 C :    0.049611
   3 O :   -0.155308
   4 C :    0.071463
   5 C :   -0.052155
   6 C :   -0.032477
   7 H :    0.055637
   8 H :    0.051711
   9 H :    0.005203
  10 H :    0.019415
  11 H :    0.009804
  12 H :    0.015255
  13 H :    0.017683
  14 H :    0.026469
  15 H :    0.029526

  Mayer bond orders larger than 0.1
B(  0-N ,  1-C ) :   1.0803 B(  0-N ,  7-H ) :   0.9646 B(  0-N ,  8-H ) :   0.9692
B(  1-C ,  2-C ) :   1.0201 B(  1-C ,  9-H ) :   0.9278 B(  1-C , 10-H ) :   0.9206
B(  2-C ,  3-O ) :   1.0242 B(  2-C ,  6-C ) :   1.0152 B(  2-C , 11-H ) :   0.8942
B(  3-O ,  4-C ) :   1.0096 B(  4-C ,  5-C ) :   1.0266 B(  4-C , 12-H ) :   0.9202
B(  4-C , 13-H ) :   0.9246 B(  5-C ,  6-C ) :   1.8499 B(  5-C , 14-H ) :   0.9849
B(  6-C , 15-H ) :   0.9945

FINAL SINGLE POINT ENERGY      -325.231927512623

DIPOLE MOMENT
-------------
                                X             Y             Z
Electronic contribution:      0.27668      -1.99981      -0.98853
Nuclear contribution   :     -0.22612       2.31471       1.09314
                        -----------------------------------------
Total Dipole Moment    :      0.05056       0.31491       0.10462
                        -----------------------------------------
Magnitude (a.u.)       :      0.33566
Magnitude (Debye)      :      0.85318

                             ****ORCA TERMINATED NORMALLY****
TOTAL RUN TIME: 0 days 0 hours 0 minutes 7 seconds 158 msec
