                         Program Version 3.0.3 - RELEASE   -
|  1> ! RI PBE def2-SVP def2-SVP/J NBO PAL2
|  2> % maxcore 2000
|  3> % output
|  4>     # printlevel mini
|  5>     print[ P_Basis ] 0
|  6>     print[ P_SCFInfo ] 1
|  7>     print[ P_SCFIterInfo ] 1
|  8>     print[ P_OrbEn ] 0
|  9>     print[ P_Cartesian ] 0
| 10> end
| 11> *xyz 0 1
| 12>  N        1.8164730000     1.0393330000    -0.7388780000
| 13>  C        2.3550690000    -0.0428470000     0.0593530000
| 14>  C        2.8746500000    -1.1272180000    -0.8552820000
| 15>  O        3.4689110000    -2.1770290000    -0.1006330000
| 16>  C        2.7539080000    -3.3101590000    -0.3994730000
| 17>  C        1.7889440000    -3.0394760000    -1.2608050000
| 18>  O        1.7995210000    -1.7085980000    -1.5976320000
| 19>  H        1.5394730000     1.8163260000    -0.1548130000
| 20>  H        0.9939890000     0.7256280000    -1.2393880000
| 21>  H        1.6453820000    -0.5102570000     0.7591440000
| 22>  H        3.2026110000     0.3260730000     0.6435370000
| 23>  H        3.6064370000    -0.7202040000    -1.5649840000
| 24>  H        3.0533750000    -4.2260630000     0.0796160000
| 25>  H        1.0378590000    -3.6613190000    -1.7162400000
| 26> *
| 27>
| 28>                          ****END OF INPUT****
 Total Charge           Charge          ....    0
 Multiplicity           Mult            ....    1
 Number of Electrons    NEL             ....   54
 Basis Dimension        Dim             ....  133

MULLIKEN ATOMIC CHARGES
-----------------------
   0 N :   -0.221250
   1 C :    0.133269
   2 C :    0.232433
   3 O :   -0.280912
   4 C :    0.094190
   5 C :    0.089064
   6 O :   -0.293900
   7 H :    0.093338
   8 H :    0.096188
   9 H :   -0.009772
  10 H :    0.018362
  11 H :    0.010395
  12 H :    0.018168
  13 H :    0.020426
Sum of atomic charges:   -0.0000000

LOEWDIN ATOMIC CHARGES
----------------------
   0 N :   -0.106079
   1 C :   -0.013060
   2 C :    0.142707
   3 O :   -0.095413
   4 C :   -0.013625
   5 C :   -0.016777
   6 O :   -0.103128
   7 H :    0.055729
   8 H :    0.053120
   9 H :    0.005411
  10 H :    0.029851
  11 H :    0.007622
  12 H :    0.026862
  13 H :    0.026782

  Mayer bond orders larger than 0.1
B(  0-N ,  1-C ) :   1.0854 B(  0-N ,  7-H ) :   0.9648 B(  0-N ,  8-H ) :   0.9641
B(  1-C ,  2-C ) :   1.0415 B(  1-C ,  9-H ) :   0.9002 B(  1-C , 10-H ) :   0.9247
B(  2-C ,  3-O ) :   1.0221 B(  2-C ,  6-O ) :   1.0077 B(  2-C , 11-H ) :   0.9145
B(  3-O ,  4-C ) :   1.0428 B(  4-C ,  5-C ) :   1.7347 B(  4-C , 12-H ) :   0.9841
B(  5-C ,  6-O ) :   1.0430 B(  5-C , 13-H ) :   0.9834

FINAL SINGLE POINT ENERGY      -361.091823278146

DIPOLE MOMENT
-------------
                                X             Y             Z
Electronic contribution:      1.10377      -3.58798      -1.21955
Nuclear contribution   :     -1.58851       3.50309       1.56190
                        -----------------------------------------
Total Dipole Moment    :     -0.48474      -0.08489       0.34234
                        -----------------------------------------
Magnitude (a.u.)       :      0.59948
Magnitude (Debye)      :      1.52375

                             ****ORCA TERMINATED NORMALLY****
TOTAL RUN TIME: 0 days 0 hours 0 minutes 6 seconds 531 msec
