                         Program Version 3.0.3 - RELEASE   -
|  1> ! RI PBE def2-SVP def2-SVP/J NBO PAL2
|  2> % maxcore 2000
|  3> % output
|  4>     # printlevel mini
|  5>     print[ P_Basis ] 0
|  6>     print[ P_SCFInfo ] 1
|  7>     print[ P_SCFIterInfo ] 1
|  8>     print[ P_OrbEn ] 0
|  9>     print[ P_Cartesian ] 0
| 10> end
| 11> *xyz 0 1
| 12>  N        0.9251510000    -0.2968140000    -0.2762260000
| 13>  C        2.3058590000     0.1144760000    -0.0843960000
| 14>  C        2.9098490000    -0.4579430000     1.1793570000
| 15>  O        4.2149850000     0.0671240000     1.2553420000
| 16>  C        2.1462950000    -0.3515460000     2.5184000000
| 17>  N        2.6061660000    -1.7137730000     2.8389270000
| 18>  C        2.8526560000    -1.9795940000     1.4082720000
| 19>  H        0.6569350000    -0.1963530000    -1.2454780000
| 20>  H        0.2950390000     0.2823160000     0.2634340000
| 21>  H        2.4538010000     1.2035800000    -0.0592300000
| 22>  H        2.9018370000    -0.2604760000    -0.9217190000
| 23>  H        4.6323870000    -0.3103320000     2.0360590000
| 24>  H        1.0616180000    -0.2681390000     2.3775630000
| 25>  H        2.4867830000     0.4299180000     3.2041910000
| 26>  H        1.9233560000    -2.3125030000     3.2843480000
| 27>  H        2.0043920000    -2.4238230000     0.8767820000
| 28>  H        3.7701910000    -2.5343080000     1.1905730000
| 29> *
| 30>
| 31>                          ****END OF INPUT****
 Total Charge           Charge          ....    0
 Multiplicity           Mult            ....    1
 Number of Electrons    NEL             ....   56
 Basis Dimension        Dim             ....  148

MULLIKEN ATOMIC CHARGES
-----------------------
   0 N :   -0.201463
   1 C :    0.132031
   2 C :   -0.241416
   3 O :   -0.235158
   4 C :    0.181700
   5 N :   -0.282849
   6 C :    0.212012
   7 H :    0.092352
   8 H :    0.090241
   9 H :    0.007294
  10 H :    0.008219
  11 H :    0.157791
  12 H :   -0.012032
  13 H :    0.002714
  14 H :    0.092499
  15 H :   -0.001246
  16 H :   -0.002688
Sum of atomic charges:    0.0000000

LOEWDIN ATOMIC CHARGES
----------------------
   0 N :   -0.103598
   1 C :   -0.000236
   2 C :    0.009635
   3 O :   -0.096646
   4 C :    0.009153
   5 N :   -0.118506
   6 C :    0.014845
   7 H :    0.056391
   8 H :    0.048942
   9 H :    0.008831
  10 H :    0.027328
  11 H :    0.072265
  12 H :    0.004192
  13 H :    0.007333
  14 H :    0.046821
  15 H :    0.007849
  16 H :    0.005399

  Mayer bond orders larger than 0.1
B(  0-N ,  1-C ) :   1.1036 B(  0-N ,  7-H ) :   0.9644 B(  0-N ,  8-H ) :   0.9632
B(  1-C ,  2-C ) :   1.0007 B(  1-C ,  9-H ) :   0.9235 B(  1-C , 10-H ) :   0.9206
B(  2-C ,  3-O ) :   1.0886 B(  2-C ,  4-C ) :   1.0247 B(  2-C ,  6-C ) :   1.0125
B(  3-O , 11-H ) :   0.9692 B(  4-C ,  5-N ) :   1.0493 B(  4-C , 12-H ) :   0.9107
B(  4-C , 13-H ) :   0.9192 B(  5-N ,  6-C ) :   1.0372 B(  5-N , 14-H ) :   0.9406
B(  6-C , 15-H ) :   0.9098 B(  6-C , 16-H ) :   0.9218

FINAL SINGLE POINT ENERGY      -342.443821949115

DIPOLE MOMENT
-------------
                                X             Y             Z
Electronic contribution:      2.53909       0.04282       1.25244
Nuclear contribution   :     -3.23111       0.04211      -1.37476
                        -----------------------------------------
Total Dipole Moment    :     -0.69201       0.08492      -0.12231
                        -----------------------------------------
Magnitude (a.u.)       :      0.70785
Magnitude (Debye)      :      1.79922

                             ****ORCA TERMINATED NORMALLY****
TOTAL RUN TIME: 0 days 0 hours 0 minutes 7 seconds 675 msec
