                         Program Version 3.0.3 - RELEASE   -
|  1> ! RI PBE def2-SVP def2-SVP/J NBO PAL2
|  2> % maxcore 2000
|  3> % output
|  4>     # printlevel mini
|  5>     print[ P_Basis ] 0
|  6>     print[ P_SCFInfo ] 1
|  7>     print[ P_SCFIterInfo ] 1
|  8>     print[ P_OrbEn ] 0
|  9>     print[ P_Cartesian ] 0
| 10> end
| 11> *xyz 0 1
| 12>  N        3.3917010000     0.5041350000     1.1414040000
| 13>  C        2.4374240000     0.0866920000     0.1370790000
| 14>  C        2.9032060000     0.3873860000    -1.2774320000
| 15>  O        1.9944670000    -0.1476570000    -2.2063910000
| 16>  C        3.3779340000     1.8250150000    -1.5626920000
| 17>  O        4.7260920000     1.3903680000    -1.7406290000
| 18>  C        4.3469450000     0.0110460000    -1.6127300000
| 19>  H        3.1348970000     0.1533030000     2.0535770000
| 20>  H        3.4496940000     1.5118580000     1.2083220000
| 21>  H        1.4310600000     0.5314140000     0.2575650000
| 22>  H        2.3127550000    -0.9982020000     0.2096180000
| 23>  H        1.1017980000     0.0879450000    -1.9350910000
| 24>  H        3.2849090000     2.5605850000    -0.7541000000
| 25>  H        2.9469880000     2.2383570000    -2.4814650000
| 26>  H        4.9024690000    -0.4898470000    -0.8166710000
| 27>  H        4.4351510000    -0.5312880000    -2.5589730000
| 28> *
| 29>
| 30>                          ****END OF INPUT****
 Total Charge           Charge          ....    0
 Multiplicity           Mult            ....    1
 Number of Electrons    NEL             ....   56
 Basis Dimension        Dim             ....  143

MULLIKEN ATOMIC CHARGES
-----------------------
   0 N :   -0.198169
   1 C :    0.119893
   2 C :   -0.278125
   3 O :   -0.227853
   4 C :    0.299974
   5 O :   -0.364838
   6 C :    0.313731
   7 H :    0.096070
   8 H :    0.092379
   9 H :   -0.020605
  10 H :    0.016650
  11 H :    0.151908
  12 H :   -0.009142
  13 H :   -0.008458
  14 H :    0.010921
  15 H :    0.005663
Sum of atomic charges:    0.0000000

LOEWDIN ATOMIC CHARGES
----------------------
   0 N :   -0.097885
   1 C :   -0.006811
   2 C :   -0.011194
   3 O :   -0.091336
   4 C :    0.069338
   5 O :   -0.179086
   6 C :    0.088739
   7 H :    0.058186
   8 H :    0.052256
   9 H :   -0.005276
  10 H :    0.025924
  11 H :    0.064971
  12 H :   -0.000541
  13 H :    0.008491
  14 H :    0.012104
  15 H :    0.012120

  Mayer bond orders larger than 0.1
B(  0-N ,  1-C ) :   1.1025 B(  0-N ,  7-H ) :   0.9612 B(  0-N ,  8-H ) :   0.9657
B(  1-C ,  2-C ) :   0.9984 B(  1-C ,  9-H ) :   0.9076 B(  1-C , 10-H ) :   0.9224
B(  2-C ,  3-O ) :   1.0979 B(  2-C ,  4-C ) :   1.0444 B(  2-C ,  6-C ) :   1.0452
B(  3-O , 11-H ) :   0.9740 B(  4-C ,  5-O ) :   1.0561 B(  4-C , 12-H ) :   0.9201
B(  4-C , 13-H ) :   0.9023 B(  5-O ,  6-C ) :   1.0327 B(  6-C , 14-H ) :   0.9206
B(  6-C , 15-H ) :   0.9102

FINAL SINGLE POINT ENERGY      -362.281085967978

DIPOLE MOMENT
-------------
                                X             Y             Z
Electronic contribution:      1.30267       0.23767      -3.07130
Nuclear contribution   :     -2.43864      -0.14421       3.96739
                        -----------------------------------------
Total Dipole Moment    :     -1.13597       0.09347       0.89609
                        -----------------------------------------
Magnitude (a.u.)       :      1.44987
Magnitude (Debye)      :      3.68528

                             ****ORCA TERMINATED NORMALLY****
TOTAL RUN TIME: 0 days 0 hours 0 minutes 6 seconds 999 msec
