                         Program Version 3.0.3 - RELEASE   -
|  1> ! RI PBE def2-SVP def2-SVP/J NBO PAL2
|  2> % maxcore 2000
|  3> % output
|  4>     # printlevel mini
|  5>     print[ P_Basis ] 0
|  6>     print[ P_SCFInfo ] 1
|  7>     print[ P_SCFIterInfo ] 1
|  8>     print[ P_OrbEn ] 0
|  9>     print[ P_Cartesian ] 0
| 10> end
| 11> *xyz 0 1
| 12>  N        0.9365090000     0.0311780000    -0.1557950000
| 13>  C        2.3722600000     0.0533480000     0.0761530000
| 14>  C        3.1214390000     0.2738260000    -1.2262300000
| 15>  C        4.6113310000     0.3465940000    -1.0433940000
| 16>  C        5.4785790000     1.0412020000    -2.0604480000
| 17>  C        5.2777570000     1.6490810000    -0.7192330000
| 18>  O        6.3927800000     1.6755230000     0.1156060000
| 19>  H        0.4329030000    -0.0865580000     0.7141820000
| 20>  H        0.6883300000    -0.7538380000    -0.7464730000
| 21>  H        2.7586000000    -0.8591930000     0.5597860000
| 22>  H        2.5911800000     0.8829380000     0.7568360000
| 23>  H        2.7548720000     1.1960670000    -1.6891570000
| 24>  H        2.8759350000    -0.5361610000    -1.9256450000
| 25>  H        5.0729470000    -0.5183160000    -0.5743180000
| 26>  H        4.9999860000     1.5062230000    -2.9141200000
| 27>  H        6.4578180000     0.6206180000    -2.2508760000
| 28>  H        4.6390010000     2.5296610000    -0.6609420000
| 29>  H        6.0929750000     1.5562080000     1.0207810000
| 30> *
| 31>
| 32>                          ****END OF INPUT****
 Total Charge           Charge          ....    0
 Multiplicity           Mult            ....    1
 Number of Electrons    NEL             ....   56
 Basis Dimension        Dim             ....  153

MULLIKEN ATOMIC CHARGES
-----------------------
   0 N :   -0.201293
   1 C :    0.057605
   2 C :    0.077406
   3 C :   -0.145494
   4 C :    0.021925
   5 C :    0.037730
   6 O :   -0.236886
   7 H :    0.087611
   8 H :    0.086039
   9 H :   -0.014090
  10 H :   -0.000016
  11 H :   -0.005391
  12 H :    0.005368
  13 H :    0.007017
  14 H :    0.025206
  15 H :    0.030444
  16 H :    0.009503
  17 H :    0.157315
Sum of atomic charges:   -0.0000000

LOEWDIN ATOMIC CHARGES
----------------------
   0 N :   -0.113121
   1 C :    0.004348
   2 C :   -0.040370
   3 C :   -0.060762
   4 C :   -0.046561
   5 C :    0.029892
   6 O :   -0.100039
   7 H :    0.052497
   8 H :    0.049071
   9 H :   -0.003466
  10 H :    0.017425
  11 H :    0.025525
  12 H :    0.023385
  13 H :    0.023509
  14 H :    0.026763
  15 H :    0.032289
  16 H :    0.006615
  17 H :    0.073000

  Mayer bond orders larger than 0.1
B(  0-N ,  1-C ) :   1.0974 B(  0-N ,  7-H ) :   0.9635 B(  0-N ,  8-H ) :   0.9683
B(  1-C ,  2-C ) :   1.0894 B(  1-C ,  9-H ) :   0.9272 B(  1-C , 10-H ) :   0.9335
B(  2-C ,  3-C ) :   1.0586 B(  2-C , 11-H ) :   0.9114 B(  2-C , 12-H ) :   0.9226
B(  3-C ,  4-C ) :   0.9912 B(  3-C ,  5-C ) :   0.9303 B(  3-C , 13-H ) :   0.9298
B(  4-C ,  5-C ) :   1.0041 B(  4-C , 14-H ) :   0.9366 B(  4-C , 15-H ) :   0.9295
B(  5-C ,  6-O ) :   1.1363 B(  5-C , 16-H ) :   0.9407 B(  6-O , 17-H ) :   0.9837

FINAL SINGLE POINT ENERGY      -326.424968141410

DIPOLE MOMENT
-------------
                                X             Y             Z
Electronic contribution:      3.94845       1.73307       0.79700
Nuclear contribution   :     -4.43719      -2.26600      -0.29763
                        -----------------------------------------
Total Dipole Moment    :     -0.48874      -0.53293       0.49937
                        -----------------------------------------
Magnitude (a.u.)       :      0.87877
Magnitude (Debye)      :      2.23367

                             ****ORCA TERMINATED NORMALLY****
TOTAL RUN TIME: 0 days 0 hours 0 minutes 7 seconds 802 msec
