                         Program Version 3.0.3 - RELEASE   -
|  1> ! RI PBE def2-SVP def2-SVP/J NBO PAL2
|  2> % maxcore 2000
|  3> % output
|  4>     # printlevel mini
|  5>     print[ P_Basis ] 0
|  6>     print[ P_SCFInfo ] 1
|  7>     print[ P_SCFIterInfo ] 1
|  8>     print[ P_OrbEn ] 0
|  9>     print[ P_Cartesian ] 0
| 10> end
| 11> *xyz 0 1
| 12>  N        0.8118360000     0.2772130000     0.2120730000
| 13>  C        2.0102240000    -0.4657470000    -0.1462220000
| 14>  C        3.2290690000     0.1263680000     0.5374350000
| 15>  C        4.4915610000    -0.6416690000     0.2494590000
| 16>  C        5.7480010000    -0.3097410000     1.0630410000
| 17>  C        5.7350820000    -1.7975470000     1.4165030000
| 18>  O        4.4656030000    -1.9844790000     0.7777010000
| 19>  H       -0.0119010000    -0.1646020000    -0.1756780000
| 20>  H        0.8487260000     1.2152580000    -0.1691880000
| 21>  H        2.1959570000    -0.5127180000    -1.2321020000
| 22>  H        1.8869370000    -1.4970270000     0.1957030000
| 23>  H        3.0549580000     0.1548200000     1.6176080000
| 24>  H        3.3771880000     1.1628980000     0.2050830000
| 25>  H        4.6783040000    -0.6720370000    -0.8337930000
| 26>  H        5.5531710000     0.3520520000     1.9077720000
| 27>  H        6.6099520000     0.0544620000     0.5057610000
| 28>  H        5.6999220000    -2.0540990000     2.4790440000
| 29>  H        6.5207000000    -2.3889160000     0.9323090000
| 30> *
| 31>
| 32>                          ****END OF INPUT****
 Total Charge           Charge          ....    0
 Multiplicity           Mult            ....    1
 Number of Electrons    NEL             ....   56
 Basis Dimension        Dim             ....  153

MULLIKEN ATOMIC CHARGES
-----------------------
   0 N :   -0.201687
   1 C :    0.047800
   2 C :    0.058860
   3 C :    0.029505
   4 C :   -0.007284
   5 C :    0.187415
   6 O :   -0.354912
   7 H :    0.086770
   8 H :    0.084863
   9 H :   -0.009362
  10 H :    0.019251
  11 H :    0.004278
  12 H :   -0.000812
  13 H :   -0.001788
  14 H :    0.013060
  15 H :    0.020278
  16 H :    0.015120
  17 H :    0.008645
Sum of atomic charges:    0.0000000

LOEWDIN ATOMIC CHARGES
----------------------
   0 N :   -0.112605
   1 C :    0.005389
   2 C :   -0.058697
   3 C :    0.067702
   4 C :   -0.051803
   5 C :    0.084682
   6 O :   -0.185910
   7 H :    0.052250
   8 H :    0.048078
   9 H :   -0.002175
  10 H :    0.025410
  11 H :    0.026919
  12 H :    0.025330
  13 H :    0.007217
  14 H :    0.027059
  15 H :    0.023588
  16 H :    0.010026
  17 H :    0.007541

  Mayer bond orders larger than 0.1
B(  0-N ,  1-C ) :   1.0972 B(  0-N ,  7-H ) :   0.9656 B(  0-N ,  8-H ) :   0.9682
B(  1-C ,  2-C ) :   1.0989 B(  1-C ,  9-H ) :   0.9283 B(  1-C , 10-H ) :   0.9302
B(  2-C ,  3-C ) :   1.0565 B(  2-C , 11-H ) :   0.9041 B(  2-C , 12-H ) :   0.9133
B(  3-C ,  4-C ) :   1.0879 B(  3-C ,  6-O ) :   1.0354 B(  3-C , 13-H ) :   0.9017
B(  4-C ,  5-C ) :   1.1196 B(  4-C , 14-H ) :   0.9205 B(  4-C , 15-H ) :   0.9397
B(  5-C ,  6-O ) :   1.0313 B(  5-C , 16-H ) :   0.9430 B(  5-C , 17-H ) :   0.9353

FINAL SINGLE POINT ENERGY      -326.424398761082

DIPOLE MOMENT
-------------
                                X             Y             Z
Electronic contribution:      0.96549      -2.44239       0.45646
Nuclear contribution   :     -0.69243       2.98023      -0.85728
                        -----------------------------------------
Total Dipole Moment    :      0.27306       0.53784      -0.40082
                        -----------------------------------------
Magnitude (a.u.)       :      0.72421
Magnitude (Debye)      :      1.84080

                             ****ORCA TERMINATED NORMALLY****
TOTAL RUN TIME: 0 days 0 hours 0 minutes 7 seconds 539 msec
