                         Program Version 3.0.3 - RELEASE   -
|  1> ! RI PBE def2-SVP def2-SVP/J NBO PAL2
|  2> % maxcore 2000
|  3> % output
|  4>     # printlevel mini
|  5>     print[ P_Basis ] 0
|  6>     print[ P_SCFInfo ] 1
|  7>     print[ P_SCFIterInfo ] 1
|  8>     print[ P_OrbEn ] 0
|  9>     print[ P_Cartesian ] 0
| 10> end
| 11> *xyz 0 1
| 12>  N        4.1071370000    -2.4152780000     0.2425850000
| 13>  C        3.8715260000    -1.2946000000     0.1458690000
| 14>  C        3.5924580000     0.1266550000     0.0166210000
| 15>  C        4.2715890000     0.9632560000     1.0880080000
| 16>  C        3.9286010000     2.4559820000     1.1185800000
| 17>  C        3.5284120000     2.1771010000     2.5690370000
| 18>  O        3.7071410000     0.7629790000     2.3871520000
| 19>  H        2.5107550000     0.2817670000     0.0627720000
| 20>  H        3.9368440000     0.4580430000    -0.9687390000
| 21>  H        5.3479580000     0.7529760000     1.0922690000
| 22>  H        3.0949080000     2.7276590000     0.4698440000
| 23>  H        4.7544430000     3.1466480000     0.9580240000
| 24>  H        2.5038380000     2.4245150000     2.8573370000
| 25>  H        4.2204110000     2.5745770000     3.3183410000
| 26> *
| 27>
| 28>                          ****END OF INPUT****
 Total Charge           Charge          ....    0
 Multiplicity           Mult            ....    1
 Number of Electrons    NEL             ....   52
 Basis Dimension        Dim             ....  133

MULLIKEN ATOMIC CHARGES
-----------------------
   0 N :    0.061327
   1 C :   -0.271117
   2 C :    0.145062
   3 C :    0.006441
   4 C :   -0.020311
   5 C :    0.193686
   6 O :   -0.338444
   7 H :    0.039915
   8 H :    0.052116
   9 H :    0.024923
  10 H :    0.022318
  11 H :    0.039424
  12 H :    0.020498
  13 H :    0.024164
Sum of atomic charges:   -0.0000000

LOEWDIN ATOMIC CHARGES
----------------------
   0 N :   -0.059942
   1 C :   -0.042598
   2 C :   -0.067549
   3 C :    0.075982
   4 C :   -0.051957
   5 C :    0.091175
   6 O :   -0.172325
   7 H :    0.057665
   8 H :    0.062830
   9 H :    0.018764
  10 H :    0.029910
  11 H :    0.030650
  12 H :    0.013463
  13 H :    0.013932

  Mayer bond orders larger than 0.1
B(  0-N ,  1-C ) :   3.0551 B(  1-C ,  2-C ) :   1.1363 B(  2-C ,  3-C ) :   1.0315
B(  2-C ,  7-H ) :   0.8634 B(  2-C ,  8-H ) :   0.8832 B(  3-C ,  4-C ) :   1.0933
B(  3-C ,  6-O ) :   1.0694 B(  3-C ,  9-H ) :   0.9054 B(  4-C ,  5-C ) :   1.1219
B(  4-C , 10-H ) :   0.9187 B(  4-C , 11-H ) :   0.9394 B(  5-C ,  6-O ) :   1.0195
B(  5-C , 12-H ) :   0.9433 B(  5-C , 13-H ) :   0.9381

FINAL SINGLE POINT ENERGY      -324.021402359286

DIPOLE MOMENT
-------------
                                X             Y             Z
Electronic contribution:      0.38854      -6.59280      -0.35957
Nuclear contribution   :     -0.54841       8.61301      -0.03197
                        -----------------------------------------
Total Dipole Moment    :     -0.15987       2.02021      -0.39154
                        -----------------------------------------
Magnitude (a.u.)       :      2.06400
Magnitude (Debye)      :      5.24628

                             ****ORCA TERMINATED NORMALLY****
TOTAL RUN TIME: 0 days 0 hours 0 minutes 6 seconds 451 msec
