                         Program Version 3.0.3 - RELEASE   -
|  1> ! RI PBE def2-SVP def2-SVP/J NBO PAL2
|  2> % maxcore 2000
|  3> % output
|  4>     # printlevel mini
|  5>     print[ P_Basis ] 0
|  6>     print[ P_SCFInfo ] 1
|  7>     print[ P_SCFIterInfo ] 1
|  8>     print[ P_OrbEn ] 0
|  9>     print[ P_Cartesian ] 0
| 10> end
| 11> *xyz 0 1
| 12>  N        0.8749130000    -0.1236810000    -0.2486630000
| 13>  C        2.2115730000     0.3707280000    -0.5362470000
| 14>  C        3.2626230000    -0.5325000000     0.0832990000
| 15>  C        4.6746110000    -0.1056020000    -0.2436820000
| 16>  C        5.8211650000    -1.0359520000     0.1711320000
| 17>  O        6.3210510000    -1.1009740000    -1.1707130000
| 18>  C        5.1976740000    -0.3607820000    -1.6647350000
| 19>  H        0.1736170000     0.4534330000    -0.6951380000
| 20>  H        0.6929350000    -0.0894510000     0.7474940000
| 21>  H        2.3864670000     1.4055620000    -0.1977800000
| 22>  H        2.3391760000     0.3751240000    -1.6244830000
| 23>  H        3.0924500000    -1.5585790000    -0.2605520000
| 24>  H        3.1306460000    -0.5437500000     1.1733130000
| 25>  H        4.8465000000     0.9253910000     0.0767060000
| 26>  H        5.4943190000    -2.0197850000     0.5305560000
| 27>  H        6.5632950000    -0.6290560000     0.8647480000
| 28>  H        4.5393750000    -0.9862820000    -2.2815410000
| 29>  H        5.5085200000     0.5128470000    -2.2456930000
| 30> *
| 31>
| 32>                          ****END OF INPUT****
 Total Charge           Charge          ....    0
 Multiplicity           Mult            ....    1
 Number of Electrons    NEL             ....   56
 Basis Dimension        Dim             ....  153

MULLIKEN ATOMIC CHARGES
-----------------------
   0 N :   -0.202340
   1 C :    0.060955
   2 C :    0.047549
   3 C :   -0.281997
   4 C :    0.276287
   5 O :   -0.366928
   6 C :    0.249313
   7 H :    0.089400
   8 H :    0.086919
   9 H :   -0.013294
  10 H :    0.009605
  11 H :    0.007976
  12 H :    0.007590
  13 H :    0.010981
  14 H :   -0.006344
  15 H :    0.010512
  16 H :    0.002671
  17 H :    0.011146
Sum of atomic charges:    0.0000000

LOEWDIN ATOMIC CHARGES
----------------------
   0 N :   -0.111300
   1 C :    0.004728
   2 C :   -0.047239
   3 C :   -0.058140
   4 C :    0.088973
   5 O :   -0.186618
   6 C :    0.084455
   7 H :    0.053543
   8 H :    0.049713
   9 H :   -0.002461
  10 H :    0.020246
  11 H :    0.025400
  12 H :    0.023199
  13 H :    0.024425
  14 H :    0.006205
  15 H :    0.009223
  16 H :    0.006423
  17 H :    0.009227

  Mayer bond orders larger than 0.1
B(  0-N ,  1-C ) :   1.0989 B(  0-N ,  7-H ) :   0.9635 B(  0-N ,  8-H ) :   0.9693
B(  1-C ,  2-C ) :   1.0925 B(  1-C ,  9-H ) :   0.9229 B(  1-C , 10-H ) :   0.9336
B(  2-C ,  3-C ) :   1.0410 B(  2-C , 11-H ) :   0.9120 B(  2-C , 12-H ) :   0.9253
B(  3-C ,  4-C ) :   1.0841 B(  3-C ,  6-C ) :   1.0877 B(  3-C , 13-H ) :   0.9058
B(  4-C ,  5-O ) :   1.0386 B(  4-C , 14-H ) :   0.9225 B(  4-C , 15-H ) :   0.9340
B(  5-O ,  6-C ) :   1.0388 B(  6-C , 16-H ) :   0.9235 B(  6-C , 17-H ) :   0.9339

FINAL SINGLE POINT ENERGY      -326.418691075704

DIPOLE MOMENT
-------------
                                X             Y             Z
Electronic contribution:      4.40168      -1.44782      -1.18789
Nuclear contribution   :     -5.10793       2.20479       1.67408
                        -----------------------------------------
Total Dipole Moment    :     -0.70625       0.75696       0.48619
                        -----------------------------------------
Magnitude (a.u.)       :      1.14374
Magnitude (Debye)      :      2.90717

                             ****ORCA TERMINATED NORMALLY****
TOTAL RUN TIME: 0 days 0 hours 0 minutes 7 seconds 568 msec
