                         Program Version 3.0.3 - RELEASE   -
|  1> ! RI PBE def2-SVP def2-SVP/J NBO PAL2
|  2> % maxcore 2000
|  3> % output
|  4>     # printlevel mini
|  5>     print[ P_Basis ] 0
|  6>     print[ P_SCFInfo ] 1
|  7>     print[ P_SCFIterInfo ] 1
|  8>     print[ P_OrbEn ] 0
|  9>     print[ P_Cartesian ] 0
| 10> end
| 11> *xyz 0 1
| 12>  N        4.9439070000     0.9056240000    -2.0442740000
| 13>  C        4.3320550000     0.5374170000    -1.1433730000
| 14>  C        3.5810170000     0.0465640000     0.0020220000
| 15>  C        4.2733450000    -1.1243710000     0.6858350000
| 16>  C        3.3987770000    -1.8625550000     1.7059960000
| 17>  O        3.2542200000    -2.9883380000     0.8336130000
| 18>  C        4.2234600000    -2.4523020000    -0.0788550000
| 19>  H        2.5856170000    -0.2549390000    -0.3404170000
| 20>  H        3.4427650000     0.8742600000     0.7047480000
| 21>  H        5.2604260000    -0.8265330000     1.0390570000
| 22>  H        2.4357010000    -1.3994720000     1.9466930000
| 23>  H        3.9114720000    -2.1302220000     2.6361770000
| 24>  H        3.8472450000    -2.4089510000    -1.1055900000
| 25>  H        5.1567910000    -3.0239810000    -0.0612430000
| 26> *
| 27>
| 28>                          ****END OF INPUT****
 Total Charge           Charge          ....    0
 Multiplicity           Mult            ....    1
 Number of Electrons    NEL             ....   52
 Basis Dimension        Dim             ....  133

MULLIKEN ATOMIC CHARGES
-----------------------
   0 N :    0.063814
   1 C :   -0.278876
   2 C :    0.134963
   3 C :   -0.312702
   4 C :    0.283514
   5 O :   -0.361044
   6 C :    0.259555
   7 H :    0.049961
   8 H :    0.058858
   9 H :    0.034367
  10 H :    0.008301
  11 H :    0.015559
  12 H :    0.021828
  13 H :    0.021901
Sum of atomic charges:    0.0000000

LOEWDIN ATOMIC CHARGES
----------------------
   0 N :   -0.061493
   1 C :   -0.046936
   2 C :   -0.052534
   3 C :   -0.047032
   4 C :    0.090858
   5 O :   -0.182014
   6 C :    0.092800
   7 H :    0.059838
   8 H :    0.060427
   9 H :    0.030965
  10 H :    0.010995
  11 H :    0.013531
  12 H :    0.015015
  13 H :    0.015580

  Mayer bond orders larger than 0.1
B(  0-N ,  1-C ) :   3.0546 B(  1-C ,  2-C ) :   1.1239 B(  2-C ,  3-C ) :   1.0244
B(  2-C ,  7-H ) :   0.8820 B(  2-C ,  8-H ) :   0.8802 B(  3-C ,  4-C ) :   1.0653
B(  3-C ,  6-C ) :   1.0697 B(  3-C ,  9-H ) :   0.9262 B(  4-C ,  5-O ) :   1.0384
B(  4-C , 10-H ) :   0.9249 B(  4-C , 11-H ) :   0.9278 B(  5-O ,  6-C ) :   1.0309
B(  6-C , 12-H ) :   0.9334 B(  6-C , 13-H ) :   0.9301

FINAL SINGLE POINT ENERGY      -324.017262155138

DIPOLE MOMENT
-------------
                                X             Y             Z
Electronic contribution:      0.78117       1.68085      -3.16046
Nuclear contribution   :     -1.12033      -1.67693       4.27610
                        -----------------------------------------
Total Dipole Moment    :     -0.33916       0.00392       1.11564
                        -----------------------------------------
Magnitude (a.u.)       :      1.16606
Magnitude (Debye)      :      2.96389

                             ****ORCA TERMINATED NORMALLY****
TOTAL RUN TIME: 0 days 0 hours 0 minutes 6 seconds 642 msec
