                         Program Version 3.0.3 - RELEASE   -
|  1> ! RI PBE def2-SVP def2-SVP/J NBO PAL2
|  2> % maxcore 2000
|  3> % output
|  4>     # printlevel mini
|  5>     print[ P_Basis ] 0
|  6>     print[ P_SCFInfo ] 1
|  7>     print[ P_SCFIterInfo ] 1
|  8>     print[ P_OrbEn ] 0
|  9>     print[ P_Cartesian ] 0
| 10> end
| 11> *xyz 0 1
| 12>  N        2.6516890000     1.5503640000    -0.0303400000
| 13>  C        2.4205250000     0.1059080000     0.0370080000
| 14>  C        3.2570260000    -0.6313560000    -0.9992950000
| 15>  C        4.7402080000    -0.4343590000    -0.8091880000
| 16>  O        5.1767430000     0.8725970000    -1.0149710000
| 17>  C        5.4531520000    -1.2508580000     0.2326280000
| 18>  C        5.6960420000    -1.4866830000    -1.2391640000
| 19>  H        2.2314130000     2.0229740000     0.7593390000
| 20>  H        2.2334580000     1.9382240000    -0.8682230000
| 21>  H        1.3617410000    -0.1628770000    -0.0858910000
| 22>  H        2.7218390000    -0.2278240000     1.0345530000
| 23>  H        2.9818960000    -0.2949060000    -2.0069730000
| 24>  H        3.0188970000    -1.6976940000    -0.9450680000
| 25>  H        4.5362660000     1.4344110000    -0.5410810000
| 26>  H        4.9010540000    -2.0009610000     0.7883010000
| 27>  H        6.2360590000    -0.7497300000     0.7873080000
| 28>  H        5.3079670000    -2.3931710000    -1.6885430000
| 29>  H        6.6366270000    -1.1379490000    -1.6466210000
| 30> *
| 31>
| 32>                          ****END OF INPUT****
 Total Charge           Charge          ....    0
 Multiplicity           Mult            ....    1
 Number of Electrons    NEL             ....   56
 Basis Dimension        Dim             ....  153

MULLIKEN ATOMIC CHARGES
-----------------------
   0 N :   -0.231117
   1 C :    0.090611
   2 C :    0.062715
   3 C :   -0.066780
   4 O :   -0.246200
   5 C :   -0.035455
   6 C :   -0.010611
   7 H :    0.105046
   8 H :    0.104368
   9 H :    0.003585
  10 H :    0.004115
  11 H :    0.005668
  12 H :   -0.009421
  13 H :    0.130197
  14 H :    0.017259
  15 H :    0.026171
  16 H :    0.018206
  17 H :    0.031641
Sum of atomic charges:    0.0000000

LOEWDIN ATOMIC CHARGES
----------------------
   0 N :   -0.074615
   1 C :    0.009762
   2 C :   -0.048729
   3 C :    0.011430
   4 O :   -0.108194
   5 C :   -0.067194
   6 C :   -0.049384
   7 H :    0.059833
   8 H :    0.058108
   9 H :    0.005554
  10 H :    0.022639
  11 H :    0.024003
  12 H :    0.030697
  13 H :    0.027616
  14 H :    0.017808
  15 H :    0.027446
  16 H :    0.021983
  17 H :    0.031235

  Mayer bond orders larger than 0.1
B(  0-N ,  1-C ) :   1.0563 B(  0-N ,  7-H ) :   0.9625 B(  0-N ,  8-H ) :   0.9627
B(  0-N , 13-H ) :   0.1622 B(  1-C ,  2-C ) :   1.0917 B(  1-C ,  9-H ) :   0.9353
B(  1-C , 10-H ) :   0.9330 B(  2-C ,  3-C ) :   1.0519 B(  2-C , 11-H ) :   0.9195
B(  2-C , 12-H ) :   0.8980 B(  3-C ,  4-O ) :   1.1449 B(  3-C ,  5-C ) :   0.9534
B(  3-C ,  6-C ) :   0.9852 B(  4-O , 13-H ) :   0.9276 B(  5-C ,  6-C ) :   1.0352
B(  5-C , 14-H ) :   0.9361 B(  5-C , 15-H ) :   0.9340 B(  6-C , 16-H ) :   0.9388
B(  6-C , 17-H ) :   0.9324

FINAL SINGLE POINT ENERGY      -326.439101007517

DIPOLE MOMENT
-------------
                                X             Y             Z
Electronic contribution:      2.17368       1.93203      -1.03493
Nuclear contribution   :     -3.43859      -1.81635       1.41395
                        -----------------------------------------
Total Dipole Moment    :     -1.26491       0.11569       0.37902
                        -----------------------------------------
Magnitude (a.u.)       :      1.32554
Magnitude (Debye)      :      3.36925

                             ****ORCA TERMINATED NORMALLY****
TOTAL RUN TIME: 0 days 0 hours 0 minutes 8 seconds 13 msec
