                         Program Version 3.0.3 - RELEASE   -
|  1> ! RI PBE def2-SVP def2-SVP/J NBO PAL2
|  2> % maxcore 2000
|  3> % output
|  4>     # printlevel mini
|  5>     print[ P_Basis ] 0
|  6>     print[ P_SCFInfo ] 1
|  7>     print[ P_SCFIterInfo ] 1
|  8>     print[ P_OrbEn ] 0
|  9>     print[ P_Cartesian ] 0
| 10> end
| 11> *xyz 0 1
| 12>  N        0.6915820000    -0.1651320000     0.0031760000
| 13>  C        2.1413530000    -0.1006050000     0.1359690000
| 14>  C        2.8040590000    -0.5541160000    -1.1527900000
| 15>  C        4.3230070000    -0.4314060000    -1.1511760000
| 16>  C        5.0137170000    -1.3461180000    -0.1835480000
| 17>  C        6.3156130000    -1.0286690000     0.3929560000
| 18>  O        5.1328320000    -0.9121890000     1.1662030000
| 19>  H        0.2440110000     0.1741000000     0.8455280000
| 20>  H        0.3950670000    -1.1273350000    -0.1131600000
| 21>  H        2.5363740000    -0.6828490000     0.9803480000
| 22>  H        2.4156600000     0.9424360000     0.3266910000
| 23>  H        2.3884420000     0.0344010000    -1.9761660000
| 24>  H        2.5271800000    -1.5979000000    -1.3536000000
| 25>  H        4.6188210000     0.5991720000    -0.9266930000
| 26>  H        4.7012510000    -0.6576730000    -2.1547430000
| 27>  H        4.7546850000    -2.4023300000    -0.2745710000
| 28>  H        6.7931320000    -0.0866030000     0.1319760000
| 29>  H        6.9898050000    -1.8287840000     0.6890780000
| 30> *
| 31>
| 32>                          ****END OF INPUT****
 Total Charge           Charge          ....    0
 Multiplicity           Mult            ....    1
 Number of Electrons    NEL             ....   56
 Basis Dimension        Dim             ....  153

MULLIKEN ATOMIC CHARGES
-----------------------
   0 N :   -0.208836
   1 C :    0.059098
   2 C :   -0.040229
   3 C :    0.109000
   4 C :   -0.037352
   5 C :    0.139820
   6 O :   -0.293754
   7 H :    0.086357
   8 H :    0.082966
   9 H :    0.012670
  10 H :    0.002524
  11 H :    0.012784
  12 H :   -0.001397
  13 H :   -0.002653
  14 H :    0.013064
  15 H :    0.012241
  16 H :    0.023227
  17 H :    0.030467
Sum of atomic charges:   -0.0000000

LOEWDIN ATOMIC CHARGES
----------------------
   0 N :   -0.114594
   1 C :    0.003792
   2 C :   -0.047474
   3 C :   -0.045416
   4 C :    0.036531
   5 C :    0.052828
   6 O :   -0.161922
   7 H :    0.051977
   8 H :    0.047658
   9 H :    0.004312
  10 H :    0.020311
  11 H :    0.026579
  12 H :    0.018400
  13 H :    0.030259
  14 H :    0.034182
  15 H :    0.013622
  16 H :    0.013454
  17 H :    0.015500

  Mayer bond orders larger than 0.1
B(  0-N ,  1-C ) :   1.0853 B(  0-N ,  7-H ) :   0.9644 B(  0-N ,  8-H ) :   0.9703
B(  1-C ,  2-C ) :   1.0952 B(  1-C ,  9-H ) :   0.9328 B(  1-C , 10-H ) :   0.9304
B(  2-C ,  3-C ) :   1.0999 B(  2-C , 11-H ) :   0.9246 B(  2-C , 12-H ) :   0.9320
B(  3-C ,  4-C ) :   1.0420 B(  3-C , 13-H ) :   0.9058 B(  3-C , 14-H ) :   0.9172
B(  4-C ,  5-C ) :   1.0844 B(  4-C ,  6-O ) :   0.9573 B(  4-C , 15-H ) :   0.9347
B(  5-C ,  6-O ) :   1.0041 B(  5-C , 16-H ) :   0.9315 B(  5-C , 17-H ) :   0.9355

FINAL SINGLE POINT ENERGY      -326.420434023574

DIPOLE MOMENT
-------------
                                X             Y             Z
Electronic contribution:      2.81233      -0.79245       2.47892
Nuclear contribution   :     -2.55731       0.42376      -2.68442
                        -----------------------------------------
Total Dipole Moment    :      0.25502      -0.36869      -0.20551
                        -----------------------------------------
Magnitude (a.u.)       :      0.49315
Magnitude (Debye)      :      1.25349

                             ****ORCA TERMINATED NORMALLY****
TOTAL RUN TIME: 0 days 0 hours 0 minutes 7 seconds 505 msec
