                         Program Version 3.0.3 - RELEASE   -
|  1> ! RI PBE def2-SVP def2-SVP/J NBO PAL2
|  2> % maxcore 2000
|  3> % output
|  4>     # printlevel mini
|  5>     print[ P_Basis ] 0
|  6>     print[ P_SCFInfo ] 1
|  7>     print[ P_SCFIterInfo ] 1
|  8>     print[ P_OrbEn ] 0
|  9>     print[ P_Cartesian ] 0
| 10> end
| 11> *xyz 0 1
| 12>  N        0.9519690000     0.1108810000     0.4169450000
| 13>  C        2.0806220000     0.0063030000     0.2250260000
| 14>  C        3.5117610000    -0.1281990000     0.0108230000
| 15>  C        4.2651770000    -0.4650630000     1.3003610000
| 16>  C        5.7356040000    -0.5924130000     1.0420110000
| 17>  C        6.5502320000    -1.6132440000     1.6901170000
| 18>  O        6.1474090000    -1.7541230000     0.3370590000
| 19>  H        3.8829340000     0.8075420000    -0.4189100000
| 20>  H        3.6822840000    -0.9123570000    -0.7322060000
| 21>  H        3.8836440000    -1.4028890000     1.7108040000
| 22>  H        4.0899800000     0.3151920000     2.0467210000
| 23>  H        6.2368790000     0.3182310000     0.7118220000
| 24>  H        6.0804640000    -2.3020100000     2.3882650000
| 25>  H        7.6120620000    -1.4393410000     1.8432510000
| 26> *
| 27>
| 28>                          ****END OF INPUT****
 Total Charge           Charge          ....    0
 Multiplicity           Mult            ....    1
 Number of Electrons    NEL             ....   52
 Basis Dimension        Dim             ....  133

MULLIKEN ATOMIC CHARGES
-----------------------
   0 N :    0.067362
   1 C :   -0.264604
   2 C :    0.025596
   3 C :    0.047038
   4 C :   -0.004656
   5 C :    0.145948
   6 O :   -0.292974
   7 H :    0.050594
   8 H :    0.068791
   9 H :    0.022558
  10 H :    0.044989
  11 H :    0.021059
  12 H :    0.032665
  13 H :    0.035632
Sum of atomic charges:    0.0000000

LOEWDIN ATOMIC CHARGES
----------------------
   0 N :   -0.066632
   1 C :   -0.045167
   2 C :   -0.054708
   3 C :   -0.032675
   4 C :    0.038378
   5 C :    0.060986
   6 O :   -0.156885
   7 H :    0.057292
   8 H :    0.063113
   9 H :    0.039931
  10 H :    0.042037
  11 H :    0.017246
  12 H :    0.017370
  13 H :    0.019713

  Mayer bond orders larger than 0.1
B(  0-N ,  1-C ) :   3.0562 B(  1-C ,  2-C ) :   1.1473 B(  2-C ,  3-C ) :   1.0924
B(  2-C ,  7-H ) :   0.8910 B(  2-C ,  8-H ) :   0.8889 B(  3-C ,  4-C ) :   1.0730
B(  3-C ,  9-H ) :   0.9106 B(  3-C , 10-H ) :   0.9252 B(  4-C ,  5-C ) :   1.1013
B(  4-C ,  6-O ) :   0.9697 B(  4-C , 11-H ) :   0.9207 B(  5-C ,  6-O ) :   1.0013
B(  5-C , 12-H ) :   0.9323 B(  5-C , 13-H ) :   0.9339

FINAL SINGLE POINT ENERGY      -324.020124591633

DIPOLE MOMENT
-------------
                                X             Y             Z
Electronic contribution:     -3.88123       0.14046      -1.90993
Nuclear contribution   :      5.33015       0.03344       2.33466
                        -----------------------------------------
Total Dipole Moment    :      1.44892       0.17390       0.42473
                        -----------------------------------------
Magnitude (a.u.)       :      1.51987
Magnitude (Debye)      :      3.86319

                             ****ORCA TERMINATED NORMALLY****
TOTAL RUN TIME: 0 days 0 hours 0 minutes 6 seconds 282 msec
