                         Program Version 3.0.3 - RELEASE   -
|  1> ! RI PBE def2-SVP def2-SVP/J NBO PAL2
|  2> % maxcore 2000
|  3> % output
|  4>     # printlevel mini
|  5>     print[ P_Basis ] 0
|  6>     print[ P_SCFInfo ] 1
|  7>     print[ P_SCFIterInfo ] 1
|  8>     print[ P_OrbEn ] 0
|  9>     print[ P_Cartesian ] 0
| 10> end
| 11> *xyz 0 1
| 12>  N        0.9996950000     0.0757250000    -0.0731670000
| 13>  C        2.1400630000    -0.0832620000    -0.1108810000
| 14>  C        3.5485810000    -0.2795800000    -0.1258120000
| 15>  C        4.2629530000    -0.2864120000    -1.2498560000
| 16>  C        5.7301280000    -0.4666460000    -1.2881620000
| 17>  C        6.4240560000    -1.4557470000    -0.4711390000
| 18>  O        6.1940150000    -1.6844620000    -1.8524080000
| 19>  H        4.0211890000    -0.4179680000     0.8415100000
| 20>  H        3.7677260000    -0.1346640000    -2.2051080000
| 21>  H        6.2887760000     0.4090270000    -1.6207120000
| 22>  H        5.8523870000    -2.0890570000     0.2019420000
| 23>  H        7.4614210000    -1.2866430000    -0.1950170000
| 24> *
| 25>
| 26>                          ****END OF INPUT****
 Total Charge           Charge          ....    0
 Multiplicity           Mult            ....    1
 Number of Electrons    NEL             ....   50
 Basis Dimension        Dim             ....  123

MULLIKEN ATOMIC CHARGES
-----------------------
   0 N :    0.049935
   1 C :   -0.092108
   2 C :   -0.113455
   3 C :    0.043164
   4 C :    0.041062
   5 C :    0.133382
   6 O :   -0.280454
   7 H :    0.050753
   8 H :    0.041868
   9 H :    0.046654
  10 H :    0.040734
  11 H :    0.038466
Sum of atomic charges:   -0.0000000

LOEWDIN ATOMIC CHARGES
----------------------
   0 N :   -0.045187
   1 C :   -0.040495
   2 C :   -0.058721
   3 C :    0.019538
   4 C :    0.036074
   5 C :    0.063221
   6 O :   -0.141517
   7 H :    0.051206
   8 H :    0.045759
   9 H :    0.029009
  10 H :    0.019667
  11 H :    0.021447

  Mayer bond orders larger than 0.1
B(  0-N ,  1-C ) :   2.9676 B(  0-N ,  3-C ) :   0.1090 B(  1-C ,  2-C ) :   1.1111
B(  2-C ,  3-C ) :   1.8471 B(  2-C ,  7-H ) :   0.9442 B(  3-C ,  4-C ) :   1.0263
B(  3-C ,  8-H ) :   0.9508 B(  4-C ,  5-C ) :   1.1124 B(  4-C ,  6-O ) :   0.9632
B(  4-C ,  9-H ) :   0.9107 B(  5-C ,  6-O ) :   0.9949 B(  5-C , 10-H ) :   0.9330
B(  5-C , 11-H ) :   0.9333

FINAL SINGLE POINT ENERGY      -322.797044176799

DIPOLE MOMENT
-------------
                                X             Y             Z
Electronic contribution:     -4.24729       0.51414      -0.44996
Nuclear contribution   :      5.67137      -0.33783       0.77781
                        -----------------------------------------
Total Dipole Moment    :      1.42408       0.17631       0.32785
                        -----------------------------------------
Magnitude (a.u.)       :      1.47193
Magnitude (Debye)      :      3.74134

                             ****ORCA TERMINATED NORMALLY****
TOTAL RUN TIME: 0 days 0 hours 0 minutes 5 seconds 979 msec
