                         Program Version 3.0.3 - RELEASE   -
|  1> ! RI PBE def2-SVP def2-SVP/J NBO PAL2
|  2> % maxcore 2000
|  3> % output
|  4>     # printlevel mini
|  5>     print[ P_Basis ] 0
|  6>     print[ P_SCFInfo ] 1
|  7>     print[ P_SCFIterInfo ] 1
|  8>     print[ P_OrbEn ] 0
|  9>     print[ P_Cartesian ] 0
| 10> end
| 11> *xyz 0 1
| 12>  N        0.9819040000     0.0378640000    -0.1019880000
| 13>  C        2.1364450000     0.0013600000    -0.1092100000
| 14>  C        3.5020870000    -0.0451070000    -0.1159100000
| 15>  C        4.7066330000    -0.0887830000    -0.1293360000
| 16>  C        6.1383660000    -0.1449180000    -0.1082800000
| 17>  C        6.8818290000    -0.8259740000    -1.1770270000
| 18>  O        6.8285670000     0.5816010000    -1.1136600000
| 19>  H        6.5845960000    -0.0929460000     0.8823880000
| 20>  H        6.3276910000    -1.2797880000    -1.9934390000
| 21>  H        7.8411910000    -1.2740190000    -0.9323380000
| 22> *
| 23>
| 24>                          ****END OF INPUT****
 Total Charge           Charge          ....    0
 Multiplicity           Mult            ....    1
 Number of Electrons    NEL             ....   48
 Basis Dimension        Dim             ....  113

MULLIKEN ATOMIC CHARGES
-----------------------
   0 N :    0.104858
   1 C :   -0.151661
   2 C :    0.023215
   3 C :    0.001328
   4 C :   -0.071435
   5 C :    0.175201
   6 O :   -0.250832
   7 H :    0.066672
   8 H :    0.052512
   9 H :    0.050142
Sum of atomic charges:   -0.0000000

LOEWDIN ATOMIC CHARGES
----------------------
   0 N :   -0.015999
   1 C :   -0.045478
   2 C :   -0.062312
   3 C :    0.032766
   4 C :    0.029600
   5 C :    0.086778
   6 O :   -0.120921
   7 H :    0.043255
   8 H :    0.026561
   9 H :    0.025749

  Mayer bond orders larger than 0.1
B(  0-N ,  1-C ) :   2.8680 B(  0-N ,  2-C ) :   0.1066 B(  0-N ,  3-C ) :   0.1863
B(  1-C ,  2-C ) :   1.0116 B(  1-C ,  3-C ) :  -0.1019 B(  2-C ,  3-C ) :   2.3298
B(  3-C ,  4-C ) :   0.9465 B(  4-C ,  5-C ) :   1.0636 B(  4-C ,  6-O ) :   1.0249
B(  4-C ,  7-H ) :   0.9269 B(  5-C ,  6-O ) :   0.9806 B(  5-C ,  8-H ) :   0.9367
B(  5-C ,  9-H ) :   0.9337

FINAL SINGLE POINT ENERGY      -321.559249211345

DIPOLE MOMENT
-------------
                                X             Y             Z
Electronic contribution:     -5.05710       1.60230       0.82347
Nuclear contribution   :      6.64706      -2.28898      -0.68544
                        -----------------------------------------
Total Dipole Moment    :      1.58997      -0.68667       0.13802
                        -----------------------------------------
Magnitude (a.u.)       :      1.73740
Magnitude (Debye)      :      4.41612

                             ****ORCA TERMINATED NORMALLY****
TOTAL RUN TIME: 0 days 0 hours 0 minutes 5 seconds 123 msec
