                         Program Version 3.0.3 - RELEASE   -
|  1> ! RI PBE def2-SVP def2-SVP/J NBO PAL2
|  2> % maxcore 2000
|  3> % output
|  4>     # printlevel mini
|  5>     print[ P_Basis ] 0
|  6>     print[ P_SCFInfo ] 1
|  7>     print[ P_SCFIterInfo ] 1
|  8>     print[ P_OrbEn ] 0
|  9>     print[ P_Cartesian ] 0
| 10> end
| 11> *xyz 0 1
| 12>  N        0.7042220000    -0.2966150000     0.1540880000
| 13>  C        2.1482370000    -0.2422280000     0.0384400000
| 14>  C        2.9208760000     0.1352110000     1.2750850000
| 15>  C        2.3960590000     0.4386450000     2.4531610000
| 16>  C        2.6424920000    -1.5753280000    -0.4760090000
| 17>  C        2.8542830000    -1.8195610000    -1.8940240000
| 18>  O        3.9511880000    -1.5930170000    -1.0170340000
| 19>  H        0.3340140000     0.6135720000     0.3981390000
| 20>  H        0.4317810000    -0.9322550000     0.8956940000
| 21>  H        2.3922840000     0.4936210000    -0.7389510000
| 22>  H        4.0014620000     0.1404940000     1.1489720000
| 23>  H        1.3233980000     0.4469180000     2.6187690000
| 24>  H        3.0219860000     0.6955140000     3.2993880000
| 25>  H        2.4131560000    -2.4266300000     0.1668860000
| 26>  H        2.6512030000    -1.0196120000    -2.6016590000
| 27>  H        2.7781590000    -2.8295280000    -2.2879340000
| 28> *
| 29>
| 30>                          ****END OF INPUT****
 Total Charge           Charge          ....    0
 Multiplicity           Mult            ....    1
 Number of Electrons    NEL             ....   54
 Basis Dimension        Dim             ....  143

MULLIKEN ATOMIC CHARGES
-----------------------
   0 N :   -0.163240
   1 C :    0.080681
   2 C :   -0.030582
   3 C :   -0.050738
   4 C :    0.007522
   5 C :    0.155842
   6 O :   -0.288406
   7 H :    0.098234
   8 H :    0.092425
   9 H :    0.000946
  10 H :    0.011948
  11 H :   -0.010549
  12 H :    0.029112
  13 H :    0.011490
  14 H :    0.027460
  15 H :    0.027854
Sum of atomic charges:   -0.0000000

LOEWDIN ATOMIC CHARGES
----------------------
   0 N :   -0.080733
   1 C :   -0.013370
   2 C :   -0.038505
   3 C :   -0.074218
   4 C :    0.043604
   5 C :    0.062619
   6 O :   -0.156377
   7 H :    0.055045
   8 H :    0.050554
   9 H :    0.037023
  10 H :    0.031696
  11 H :    0.008030
  12 H :    0.027627
  13 H :    0.014153
  14 H :    0.016328
  15 H :    0.016524

  Mayer bond orders larger than 0.1
B(  0-N ,  1-C ) :   1.1066 B(  0-N ,  7-H ) :   0.9597 B(  0-N ,  8-H ) :   0.9665
B(  1-C ,  2-C ) :   0.9697 B(  1-C ,  4-C ) :   0.9918 B(  1-C ,  9-H ) :   0.8708
B(  2-C ,  3-C ) :   2.0002 B(  2-C , 10-H ) :   0.9481 B(  3-C , 11-H ) :   0.9340
B(  3-C , 12-H ) :   0.9429 B(  4-C ,  5-C ) :   1.0943 B(  4-C ,  6-O ) :   0.9782
B(  4-C , 13-H ) :   0.9314 B(  5-C ,  6-O ) :   1.0049 B(  5-C , 14-H ) :   0.9240
B(  5-C , 15-H ) :   0.9390

FINAL SINGLE POINT ENERGY      -325.199109096142

DIPOLE MOMENT
-------------
                                X             Y             Z
Electronic contribution:      2.42190      -1.42434      -2.02521
Nuclear contribution   :     -2.98320       1.54149       2.22907
                        -----------------------------------------
Total Dipole Moment    :     -0.56131       0.11715       0.20386
                        -----------------------------------------
Magnitude (a.u.)       :      0.60856
Magnitude (Debye)      :      1.54684

                             ****ORCA TERMINATED NORMALLY****
TOTAL RUN TIME: 0 days 0 hours 0 minutes 6 seconds 880 msec
