                         Program Version 3.0.3 - RELEASE   -
|  1> ! RI PBE def2-SVP def2-SVP/J NBO PAL2
|  2> % maxcore 2000
|  3> % output
|  4>     # printlevel mini
|  5>     print[ P_Basis ] 0
|  6>     print[ P_SCFInfo ] 1
|  7>     print[ P_SCFIterInfo ] 1
|  8>     print[ P_OrbEn ] 0
|  9>     print[ P_Cartesian ] 0
| 10> end
| 11> *xyz 0 1
| 12>  N        0.9710350000    -0.0308690000     0.2696960000
| 13>  C        2.4175450000     0.0758070000     0.1206600000
| 14>  C        2.9483250000     1.4161110000     0.3832990000
| 15>  C        3.3416770000     2.5336490000     0.5803800000
| 16>  C        3.0487840000    -0.9920160000     0.9862280000
| 17>  C        4.2964750000    -0.8134780000     1.7146640000
| 18>  O        3.0434150000    -0.7600310000     2.3825770000
| 19>  H        0.5097680000     0.6576970000    -0.3122030000
| 20>  H        0.7239690000     0.1814350000     1.2303100000
| 21>  H        2.6612910000    -0.1820460000    -0.9178870000
| 22>  H        3.6878780000     3.5241680000     0.7599420000
| 23>  H        2.7424330000    -1.9962850000     0.6991060000
| 24>  H        4.8195440000     0.1360440000     1.6456970000
| 25>  H        4.9052910000    -1.6844760000     1.9430290000
| 26> *
| 27>
| 28>                          ****END OF INPUT****
 Total Charge           Charge          ....    0
 Multiplicity           Mult            ....    1
 Number of Electrons    NEL             ....   52
 Basis Dimension        Dim             ....  133

MULLIKEN ATOMIC CHARGES
-----------------------
   0 N :   -0.175084
   1 C :    0.187746
   2 C :    0.329396
   3 C :   -0.511361
   4 C :   -0.031109
   5 C :    0.175070
   6 O :   -0.294186
   7 H :    0.096616
   8 H :    0.101118
   9 H :    0.030881
  10 H :    0.000920
  11 H :    0.022710
  12 H :    0.036076
  13 H :    0.031207
Sum of atomic charges:    0.0000000

LOEWDIN ATOMIC CHARGES
----------------------
   0 N :   -0.075057
   1 C :   -0.016281
   2 C :   -0.035857
   3 C :   -0.083220
   4 C :    0.044215
   5 C :    0.059123
   6 O :   -0.152348
   7 H :    0.057496
   8 H :    0.059454
   9 H :    0.048980
  10 H :    0.035723
  11 H :    0.019802
  12 H :    0.020342
  13 H :    0.017630

  Mayer bond orders larger than 0.1
B(  0-N ,  1-C ) :   1.1006 B(  0-N ,  7-H ) :   0.9685 B(  0-N ,  8-H ) :   0.9644
B(  1-C ,  2-C ) :   0.9250 B(  1-C ,  4-C ) :   0.9548 B(  1-C ,  9-H ) :   0.8722
B(  2-C ,  3-C ) :   2.3415 B(  2-C , 10-H ) :  -0.1141 B(  3-C , 10-H ) :   1.1033
B(  4-C ,  5-C ) :   1.1019 B(  4-C ,  6-O ) :   0.9679 B(  4-C , 11-H ) :   0.9359
B(  5-C ,  6-O ) :   0.9990 B(  5-C , 12-H ) :   0.9049 B(  5-C , 13-H ) :   0.9367

FINAL SINGLE POINT ENERGY      -323.954720280103

DIPOLE MOMENT
-------------
                                X             Y             Z
Electronic contribution:      0.05526       0.66923       1.02955
Nuclear contribution   :      0.18619      -0.41234      -1.49828
                        -----------------------------------------
Total Dipole Moment    :      0.24144       0.25688      -0.46873
                        -----------------------------------------
Magnitude (a.u.)       :      0.58651
Magnitude (Debye)      :      1.49079

                             ****ORCA TERMINATED NORMALLY****
TOTAL RUN TIME: 0 days 0 hours 0 minutes 6 seconds 624 msec
