                         Program Version 3.0.3 - RELEASE   -
|  1> ! RI PBE def2-SVP def2-SVP/J NBO PAL2
|  2> % maxcore 2000
|  3> % output
|  4>     # printlevel mini
|  5>     print[ P_Basis ] 0
|  6>     print[ P_SCFInfo ] 1
|  7>     print[ P_SCFIterInfo ] 1
|  8>     print[ P_OrbEn ] 0
|  9>     print[ P_Cartesian ] 0
| 10> end
| 11> *xyz 0 1
| 12>  N        2.1744350000     1.5467100000    -0.0126840000
| 13>  C        2.9046910000     0.3102800000    -0.2535290000
| 14>  C        3.0450030000    -0.4593780000     1.0160250000
| 15>  C        4.1959880000    -0.9087820000     1.5039430000
| 16>  C        4.3065920000    -1.6847550000     2.7450860000
| 17>  C        5.3723090000    -2.6695420000     2.9440570000
| 18>  O        5.4365250000    -1.4067480000     3.5731150000
| 19>  H        1.9980260000     2.0354540000    -0.8809620000
| 20>  H        2.7160730000     2.1644450000     0.5792620000
| 21>  H        3.8995420000     0.4469330000    -0.7045400000
| 22>  H        2.3154770000    -0.2824170000    -0.9638950000
| 23>  H        2.1201760000    -0.6366210000     1.5624030000
| 24>  H        5.1297480000    -0.7113680000     0.9802150000
| 25>  H        3.3787160000    -1.8299930000     3.2961120000
| 26>  H        6.0974820000    -2.8333370000     2.1497280000
| 27>  H        5.1990160000    -3.5165000000     3.6041750000
| 28> *
| 29>
| 30>                          ****END OF INPUT****
 Total Charge           Charge          ....    0
 Multiplicity           Mult            ....    1
 Number of Electrons    NEL             ....   54
 Basis Dimension        Dim             ....  143

MULLIKEN ATOMIC CHARGES
-----------------------
   0 N :   -0.227568
   1 C :    0.147941
   2 C :   -0.103139
   3 C :    0.065265
   4 C :    0.018042
   5 C :    0.150156
   6 O :   -0.287453
   7 H :    0.089964
   8 H :    0.092548
   9 H :   -0.010933
  10 H :    0.019806
  11 H :   -0.003143
  12 H :   -0.015633
  13 H :    0.007825
  14 H :    0.024820
  15 H :    0.031501
Sum of atomic charges:    0.0000000

LOEWDIN ATOMIC CHARGES
----------------------
   0 N :   -0.110492
   1 C :    0.006391
   2 C :   -0.034525
   3 C :   -0.050786
   4 C :    0.040550
   5 C :    0.057854
   6 O :   -0.152489
   7 H :    0.052742
   8 H :    0.052777
   9 H :    0.003674
  10 H :    0.032150
  11 H :    0.025671
  12 H :    0.026773
  13 H :    0.019560
  14 H :    0.013704
  15 H :    0.016444

  Mayer bond orders larger than 0.1
B(  0-N ,  1-C ) :   1.0653 B(  0-N ,  7-H ) :   0.9640 B(  0-N ,  8-H ) :   0.9720
B(  1-C ,  2-C ) :   1.0574 B(  1-C ,  9-H ) :   0.9236 B(  1-C , 10-H ) :   0.9101
B(  2-C ,  3-C ) :   1.8150 B(  2-C , 11-H ) :   0.9676 B(  3-C ,  4-C ) :   1.0634
B(  3-C , 12-H ) :   0.9411 B(  4-C ,  5-C ) :   1.0501 B(  4-C ,  6-O ) :   0.9399
B(  4-C , 13-H ) :   0.9461 B(  5-C ,  6-O ) :   1.0053 B(  5-C , 14-H ) :   0.9305
B(  5-C , 15-H ) :   0.9339

FINAL SINGLE POINT ENERGY      -325.202727184595

DIPOLE MOMENT
-------------
                                X             Y             Z
Electronic contribution:      2.23628      -1.33449       4.04598
Nuclear contribution   :     -2.26852       1.20990      -4.77175
                        -----------------------------------------
Total Dipole Moment    :     -0.03223      -0.12460      -0.72576
                        -----------------------------------------
Magnitude (a.u.)       :      0.73708
Magnitude (Debye)      :      1.87352

                             ****ORCA TERMINATED NORMALLY****
TOTAL RUN TIME: 0 days 0 hours 0 minutes 6 seconds 462 msec
