                         Program Version 3.0.3 - RELEASE   -
|  1> ! RI PBE def2-SVP def2-SVP/J NBO PAL2
|  2> % maxcore 2000
|  3> % output
|  4>     # printlevel mini
|  5>     print[ P_Basis ] 0
|  6>     print[ P_SCFInfo ] 1
|  7>     print[ P_SCFIterInfo ] 1
|  8>     print[ P_OrbEn ] 0
|  9>     print[ P_Cartesian ] 0
| 10> end
| 11> *xyz 0 1
| 12>  N        1.5708020000     0.6211830000     0.2204200000
| 13>  C        2.9754410000     0.2848490000     0.1178010000
| 14>  C        3.3714860000    -0.8795010000     0.9788020000
| 15>  C        2.5091700000    -1.6110610000     1.6735330000
| 16>  C        4.8347880000    -1.1369180000     1.0181890000
| 17>  C        5.4055290000    -2.4743280000     0.9250920000
| 18>  O        5.4340520000    -1.6002200000    -0.1915440000
| 19>  H        1.3161680000     1.3009380000    -0.4831820000
| 20>  H        1.3667180000     1.0301460000     1.1240960000
| 21>  H        3.6556170000     1.1221840000     0.3534020000
| 22>  H        3.1952400000     0.0166590000    -0.9219400000
| 23>  H        1.4464340000    -1.4051250000     1.6313040000
| 24>  H        2.8447600000    -2.4389100000     2.2874850000
| 25>  H        5.4293870000    -0.3685010000     1.5154930000
| 26>  H        4.7397760000    -3.3274510000     0.8270150000
| 27>  H        6.3725330000    -2.6788430000     1.3785330000
| 28> *
| 29>
| 30>                          ****END OF INPUT****
 Total Charge           Charge          ....    0
 Multiplicity           Mult            ....    1
 Number of Electrons    NEL             ....   54
 Basis Dimension        Dim             ....  143

MULLIKEN ATOMIC CHARGES
-----------------------
   0 N :   -0.198626
   1 C :    0.156319
   2 C :   -0.151345
   3 C :   -0.019312
   4 C :    0.046708
   5 C :    0.138209
   6 O :   -0.296941
   7 H :    0.094376
   8 H :    0.092812
   9 H :   -0.005078
  10 H :    0.032330
  11 H :    0.018122
  12 H :    0.010954
  13 H :    0.027793
  14 H :    0.030901
  15 H :    0.022779
Sum of atomic charges:   -0.0000000

LOEWDIN ATOMIC CHARGES
----------------------
   0 N :   -0.099064
   1 C :    0.011626
   2 C :   -0.054186
   3 C :   -0.058526
   4 C :    0.045072
   5 C :    0.060143
   6 O :   -0.157865
   7 H :    0.056702
   8 H :    0.053216
   9 H :    0.009916
  10 H :    0.039618
  11 H :    0.021921
  12 H :    0.020748
  13 H :    0.018617
  14 H :    0.017272
  15 H :    0.014791

  Mayer bond orders larger than 0.1
B(  0-N ,  1-C ) :   1.1236 B(  0-N ,  7-H ) :   0.9637 B(  0-N ,  8-H ) :   0.9648
B(  1-C ,  2-C ) :   1.0082 B(  1-C ,  9-H ) :   0.9109 B(  1-C , 10-H ) :   0.9057
B(  2-C ,  3-C ) :   1.9961 B(  2-C ,  4-C ) :   1.0058 B(  3-C , 11-H ) :   0.9133
B(  3-C , 12-H ) :   0.9311 B(  4-C ,  5-C ) :   1.1125 B(  4-C ,  6-O ) :   0.9629
B(  4-C , 13-H ) :   0.9121 B(  5-C ,  6-O ) :   1.0001 B(  5-C , 14-H ) :   0.9344
B(  5-C , 15-H ) :   0.9302

FINAL SINGLE POINT ENERGY      -325.199089892363

DIPOLE MOMENT
-------------
                                X             Y             Z
Electronic contribution:      2.83196      -1.12987      -1.21350
Nuclear contribution   :     -2.91962       1.63713       1.73455
                        -----------------------------------------
Total Dipole Moment    :     -0.08766       0.50727       0.52105
                        -----------------------------------------
Magnitude (a.u.)       :      0.73246
Magnitude (Debye)      :      1.86177

                             ****ORCA TERMINATED NORMALLY****
TOTAL RUN TIME: 0 days 0 hours 0 minutes 7 seconds 192 msec
