                         Program Version 3.0.3 - RELEASE   -
|  1> ! RI PBE def2-SVP def2-SVP/J NBO PAL2
|  2> % maxcore 2000
|  3> % output
|  4>     # printlevel mini
|  5>     print[ P_Basis ] 0
|  6>     print[ P_SCFInfo ] 1
|  7>     print[ P_SCFIterInfo ] 1
|  8>     print[ P_OrbEn ] 0
|  9>     print[ P_Cartesian ] 0
| 10> end
| 11> *xyz 0 1
| 12>  N        0.9473920000    -0.2625480000     0.1219960000
| 13>  C        2.3559610000     0.1136030000     0.1215410000
| 14>  C        2.8239800000     0.4400710000    -1.2164900000
| 15>  C        3.2150840000     0.6981540000    -2.3242020000
| 16>  C        3.6976550000     0.9895200000    -3.6442930000
| 17>  C        2.8188470000     1.5631510000    -4.6693940000
| 18>  O        3.7925100000     2.3585590000    -4.0289240000
| 19>  H        0.6623600000    -0.5214230000     1.0585500000
| 20>  H        0.8041520000    -1.0702120000    -0.4716180000
| 21>  H        3.0285820000    -0.6537840000     0.5365810000
| 22>  H        2.4736730000     1.0007440000     0.7533480000
| 23>  H        4.5346830000     0.3811590000    -3.9804700000
| 24>  H        1.7881680000     1.7831830000    -4.4054630000
| 25>  H        3.0103540000     1.3346230000    -5.7152520000
| 26> *
| 27>
| 28>                          ****END OF INPUT****
 Total Charge           Charge          ....    0
 Multiplicity           Mult            ....    1
 Number of Electrons    NEL             ....   52
 Basis Dimension        Dim             ....  133

MULLIKEN ATOMIC CHARGES
-----------------------
   0 N :   -0.217211
   1 C :    0.161122
   2 C :   -0.162368
   3 C :    0.016776
   4 C :   -0.054670
   5 C :    0.163227
   6 O :   -0.267930
   7 H :    0.090718
   8 H :    0.095092
   9 H :    0.022236
  10 H :    0.032543
  11 H :    0.045338
  12 H :    0.040039
  13 H :    0.035087
Sum of atomic charges:   -0.0000000

LOEWDIN ATOMIC CHARGES
----------------------
   0 N :   -0.106612
   1 C :    0.000836
   2 C :   -0.039436
   3 C :   -0.065395
   4 C :    0.029180
   5 C :    0.071451
   6 O :   -0.139965
   7 H :    0.054272
   8 H :    0.054192
   9 H :    0.024184
  10 H :    0.047055
  11 H :    0.031431
  12 H :    0.021494
  13 H :    0.017313

  Mayer bond orders larger than 0.1
B(  0-N ,  1-C ) :   1.0784 B(  0-N ,  7-H ) :   0.9608 B(  0-N ,  8-H ) :   0.9681
B(  1-C ,  2-C ) :   1.0625 B(  1-C ,  9-H ) :   0.9056 B(  1-C , 10-H ) :   0.8859
B(  2-C ,  3-C ) :   2.5841 B(  3-C ,  4-C ) :   0.9410 B(  4-C ,  5-C ) :   1.0701
B(  4-C ,  6-O ) :   1.0091 B(  4-C , 11-H ) :   0.9321 B(  5-C ,  6-O ) :   0.9930
B(  5-C , 12-H ) :   0.9339 B(  5-C , 13-H ) :   0.9332

FINAL SINGLE POINT ENERGY      -323.956697168384

DIPOLE MOMENT
-------------
                                X             Y             Z
Electronic contribution:      2.72264       2.38326      -2.85341
Nuclear contribution   :     -2.92372      -3.41549       3.12366
                        -----------------------------------------
Total Dipole Moment    :     -0.20107      -1.03222       0.27025
                        -----------------------------------------
Magnitude (a.u.)       :      1.08579
Magnitude (Debye)      :      2.75987

                             ****ORCA TERMINATED NORMALLY****
TOTAL RUN TIME: 0 days 0 hours 0 minutes 5 seconds 819 msec
