                         Program Version 3.0.3 - RELEASE   -
|  1> ! RI PBE def2-SVP def2-SVP/J NBO PAL2
|  2> % maxcore 2000
|  3> % output
|  4>     # printlevel mini
|  5>     print[ P_Basis ] 0
|  6>     print[ P_SCFInfo ] 1
|  7>     print[ P_SCFIterInfo ] 1
|  8>     print[ P_OrbEn ] 0
|  9>     print[ P_Cartesian ] 0
| 10> end
| 11> *xyz 0 1
| 12>  N        0.5236770000     0.5432380000     0.7256540000
| 13>  C        1.9373180000     0.2224900000     0.8503490000
| 14>  C        2.5493790000     0.9431490000     2.0366840000
| 15>  C        4.0385670000     0.6817130000     2.1922750000
| 16>  C        4.6508670000     1.3943600000     3.3878880000
| 17>  C        6.1397180000     1.1417140000     3.5247710000
| 18>  O        6.7068580000     1.7525590000     4.6648100000
| 19>  H        0.1210980000     0.0851710000    -0.0821210000
| 20>  H        0.0153990000     0.2083350000     1.5357000000
| 21>  H        2.4385710000     0.5529310000    -0.0659590000
| 22>  H        2.1406780000    -0.8571900000     0.9449250000
| 23>  H        2.0294600000     0.6332720000     2.9525930000
| 24>  H        2.3628480000     2.0166040000     1.9266090000
| 25>  H        4.5574630000     0.9926220000     1.2769080000
| 26>  H        4.2128310000    -0.3972350000     2.2871360000
| 27>  H        4.1551240000     1.0766190000     4.3114860000
| 28>  H        4.4762500000     2.4747070000     3.2957120000
| 29>  H        6.6583610000     1.4621350000     2.6088740000
| 30>  H        6.3281760000     0.0707210000     3.6402010000
| 31>  H        6.5571370000     2.6993860000     4.6033240000
| 32> *
| 33>
| 34>                          ****END OF INPUT****
 Total Charge           Charge          ....    0
 Multiplicity           Mult            ....    1
 Number of Electrons    NEL             ....   58
 Basis Dimension        Dim             ....  163

MULLIKEN ATOMIC CHARGES
-----------------------
   0 N :   -0.204616
   1 C :    0.071563
   2 C :   -0.027960
   3 C :   -0.049636
   4 C :   -0.044252
   5 C :    0.179546
   6 O :   -0.282998
   7 H :    0.086306
   8 H :    0.086478
   9 H :   -0.000106
  10 H :   -0.009351
  11 H :   -0.001904
  12 H :    0.015896
  13 H :    0.004650
  14 H :    0.011368
  15 H :    0.012446
  16 H :    0.001398
  17 H :   -0.009919
  18 H :    0.010188
  19 H :    0.150903
Sum of atomic charges:   -0.0000000

LOEWDIN ATOMIC CHARGES
----------------------
   0 N :   -0.113378
   1 C :    0.004471
   2 C :   -0.048277
   3 C :   -0.040832
   4 C :   -0.064852
   5 C :    0.052750
   6 O :   -0.123498
   7 H :    0.051841
   8 H :    0.048816
   9 H :    0.018200
  10 H :   -0.002603
  11 H :    0.019051
  12 H :    0.025372
  13 H :    0.021220
  14 H :    0.022375
  15 H :    0.024282
  16 H :    0.018491
  17 H :    0.001069
  18 H :    0.019932
  19 H :    0.065570

  Mayer bond orders larger than 0.1
B(  0-N ,  1-C ) :   1.0971 B(  0-N ,  7-H ) :   0.9640 B(  0-N ,  8-H ) :   0.9689
B(  1-C ,  2-C ) :   1.0905 B(  1-C ,  9-H ) :   0.9295 B(  1-C , 10-H ) :   0.9277
B(  2-C ,  3-C ) :   1.0838 B(  2-C , 11-H ) :   0.9322 B(  2-C , 12-H ) :   0.9311
B(  3-C ,  4-C ) :   1.0727 B(  3-C , 13-H ) :   0.9323 B(  3-C , 14-H ) :   0.9343
B(  4-C ,  5-C ) :   1.0749 B(  4-C , 15-H ) :   0.9262 B(  4-C , 16-H ) :   0.9295
B(  5-C ,  6-O ) :   1.0660 B(  5-C , 17-H ) :   0.9362 B(  5-C , 18-H ) :   0.9371
B(  6-O , 19-H ) :   0.9879

FINAL SINGLE POINT ENERGY      -327.647478167644

DIPOLE MOMENT
-------------
                                X             Y             Z
Electronic contribution:      2.84299       1.25326       2.69130
Nuclear contribution   :     -3.23740      -1.40539      -3.08658
                        -----------------------------------------
Total Dipole Moment    :     -0.39441      -0.15214      -0.39528
                        -----------------------------------------
Magnitude (a.u.)       :      0.57875
Magnitude (Debye)      :      1.47107

                             ****ORCA TERMINATED NORMALLY****
TOTAL RUN TIME: 0 days 0 hours 0 minutes 8 seconds 335 msec
