                         Program Version 3.0.3 - RELEASE   -
|  1> ! RI PBE def2-SVP def2-SVP/J NBO PAL2
|  2> % maxcore 2000
|  3> % output
|  4>     # printlevel mini
|  5>     print[ P_Basis ] 0
|  6>     print[ P_SCFInfo ] 1
|  7>     print[ P_SCFIterInfo ] 1
|  8>     print[ P_OrbEn ] 0
|  9>     print[ P_Cartesian ] 0
| 10> end
| 11> *xyz 0 1
| 12>  N        1.2698120000    -0.7865120000    -0.1864270000
| 13>  C        2.5407420000    -0.3666290000    -0.1008120000
| 14>  C        2.9792500000     0.8127410000     0.4186560000
| 15>  C        2.0869840000     1.7747500000     1.0481920000
| 16>  C        2.2832550000     3.0891440000     1.1609570000
| 17>  C        4.4211120000     1.0404840000     0.3717880000
| 18>  O        5.2338610000     0.3234860000    -0.1729800000
| 19>  H        1.0515400000    -1.6794460000    -0.5848080000
| 20>  H        0.5038000000    -0.1911580000     0.0715740000
| 21>  H        3.2917590000    -1.0448070000    -0.4952690000
| 22>  H        1.1814620000     1.3668810000     1.4992610000
| 23>  H        3.1455370000     3.5847200000     0.7293430000
| 24>  H        1.5771080000     3.7137480000     1.6940480000
| 25>  H        4.7585580000     1.9477190000     0.9129780000
| 26> *
| 27>
| 28>                          ****END OF INPUT****
 Total Charge           Charge          ....    0
 Multiplicity           Mult            ....    1
 Number of Electrons    NEL             ....   52
 Basis Dimension        Dim             ....  133

MULLIKEN ATOMIC CHARGES
-----------------------
   0 N :   -0.032263
   1 C :    0.016262
   2 C :   -0.071354
   3 C :   -0.050099
   4 C :   -0.044271
   5 C :    0.123210
   6 O :   -0.200318
   7 H :    0.131659
   8 H :    0.121966
   9 H :    0.013735
  10 H :   -0.019760
  11 H :    0.023053
  12 H :    0.022269
  13 H :   -0.034088
Sum of atomic charges:    0.0000000

LOEWDIN ATOMIC CHARGES
----------------------
   0 N :    0.057524
   1 C :    0.064823
   2 C :   -0.170745
   3 C :   -0.041283
   4 C :   -0.065809
   5 C :    0.071495
   6 O :   -0.157439
   7 H :    0.082484
   8 H :    0.076827
   9 H :    0.031934
  10 H :    0.017610
  11 H :    0.021820
  12 H :    0.024031
  13 H :   -0.013272

  Mayer bond orders larger than 0.1
B(  0-N ,  1-C ) :   1.3584 B(  0-N ,  7-H ) :   0.9536 B(  0-N ,  8-H ) :   0.9455
B(  1-C ,  2-C ) :   1.5411 B(  1-C ,  9-H ) :   0.9201 B(  2-C ,  3-C ) :   1.0781
B(  2-C ,  5-C ) :   1.0569 B(  3-C ,  4-C ) :   1.9382 B(  3-C , 10-H ) :   0.9391
B(  4-C , 11-H ) :   0.9476 B(  4-C , 12-H ) :   0.9383 B(  5-C ,  6-O ) :   2.0864
B(  5-C , 13-H ) :   0.9290

FINAL SINGLE POINT ENERGY      -324.048395199468

DIPOLE MOMENT
-------------
                                X             Y             Z
Electronic contribution:      3.10256      -2.51013      -1.37365
Nuclear contribution   :     -4.97123       1.91826       1.32842
                        -----------------------------------------
Total Dipole Moment    :     -1.86867      -0.59187      -0.04523
                        -----------------------------------------
Magnitude (a.u.)       :      1.96069
Magnitude (Debye)      :      4.98367

                             ****ORCA TERMINATED NORMALLY****
TOTAL RUN TIME: 0 days 0 hours 0 minutes 6 seconds 380 msec
