                         Program Version 3.0.3 - RELEASE   -
|  1> ! RI PBE def2-SVP def2-SVP/J NBO PAL2
|  2> % maxcore 2000
|  3> % output
|  4>     # printlevel mini
|  5>     print[ P_Basis ] 0
|  6>     print[ P_SCFInfo ] 1
|  7>     print[ P_SCFIterInfo ] 1
|  8>     print[ P_OrbEn ] 0
|  9>     print[ P_Cartesian ] 0
| 10> end
| 11> *xyz 0 1
| 12>  N        1.5455600000     0.2588550000    -0.0015920000
| 13>  C        2.8326570000    -0.1796930000     0.1064090000
| 14>  C        3.8023090000     0.4519590000    -0.7921370000
| 15>  C        3.5952220000     1.5887660000    -1.4522000000
| 16>  C        3.1787740000    -1.1174540000     1.0321330000
| 17>  C        4.5178790000    -1.5673040000     1.3145170000
| 18>  O        4.7870370000    -2.4045800000     2.1513710000
| 19>  H        1.2429320000     0.6105860000    -0.8933590000
| 20>  H        0.8435820000    -0.2289370000     0.5280390000
| 21>  H        4.7457450000    -0.0632060000    -0.9160690000
| 22>  H        2.6893360000     2.1740870000    -1.3392970000
| 23>  H        4.3541130000     1.9918040000    -2.1112310000
| 24>  H        2.4023220000    -1.5688280000     1.6437970000
| 25>  H        5.3345320000    -1.1080550000     0.7210400000
| 26> *
| 27>
| 28>                          ****END OF INPUT****
 Total Charge           Charge          ....    0
 Multiplicity           Mult            ....    1
 Number of Electrons    NEL             ....   52
 Basis Dimension        Dim             ....  133

MULLIKEN ATOMIC CHARGES
-----------------------
   0 N :   -0.041426
   1 C :    0.020986
   2 C :   -0.024573
   3 C :   -0.027740
   4 C :   -0.070727
   5 C :    0.111728
   6 O :   -0.206613
   7 H :    0.117548
   8 H :    0.112992
   9 H :    0.012484
  10 H :    0.023796
  11 H :    0.039085
  12 H :   -0.026853
  13 H :   -0.040689
Sum of atomic charges:    0.0000000

LOEWDIN ATOMIC CHARGES
----------------------
   0 N :    0.028816
   1 C :    0.026551
   2 C :   -0.031424
   3 C :   -0.036547
   4 C :   -0.129509
   5 C :    0.046740
   6 O :   -0.152921
   7 H :    0.071517
   8 H :    0.077032
   9 H :    0.035002
  10 H :    0.022099
  11 H :    0.033337
  12 H :    0.027093
  13 H :   -0.017785

  Mayer bond orders larger than 0.1
B(  0-N ,  1-C ) :   1.3064 B(  0-N ,  7-H ) :   0.9349 B(  0-N ,  8-H ) :   0.9456
B(  1-C ,  2-C ) :   1.1101 B(  1-C ,  4-C ) :   1.4653 B(  2-C ,  3-C ) :   1.9106
B(  2-C ,  9-H ) :   0.9416 B(  3-C , 10-H ) :   0.9455 B(  3-C , 11-H ) :   0.9348
B(  4-C ,  5-C ) :   1.1178 B(  4-C , 12-H ) :   0.9555 B(  5-C ,  6-O ) :   2.0468
B(  5-C , 13-H ) :   0.9269

FINAL SINGLE POINT ENERGY      -324.045834436280

DIPOLE MOMENT
-------------
                                X             Y             Z
Electronic contribution:      1.08017      -3.43252       3.21181
Nuclear contribution   :     -2.39078       4.57267      -4.53035
                        -----------------------------------------
Total Dipole Moment    :     -1.31061       1.14015      -1.31853
                        -----------------------------------------
Magnitude (a.u.)       :      2.18086
Magnitude (Debye)      :      5.54331

                             ****ORCA TERMINATED NORMALLY****
TOTAL RUN TIME: 0 days 0 hours 0 minutes 6 seconds 311 msec
