                         Program Version 3.0.3 - RELEASE   -
|  1> ! RI PBE def2-SVP def2-SVP/J NBO PAL2
|  2> % maxcore 2000
|  3> % output
|  4>     # printlevel mini
|  5>     print[ P_Basis ] 0
|  6>     print[ P_SCFInfo ] 1
|  7>     print[ P_SCFIterInfo ] 1
|  8>     print[ P_OrbEn ] 0
|  9>     print[ P_Cartesian ] 0
| 10> end
| 11> *xyz 0 1
| 12>  N        2.8749720000    -0.2384040000    -1.6620270000
| 13>  C        3.5959300000    -0.3719020000    -0.4034680000
| 14>  C        3.2073370000     0.7182390000     0.5396430000
| 15>  C        4.0632010000     1.5388160000     1.1418720000
| 16>  C        3.6877880000     2.6414950000     2.0758770000
| 17>  C        3.9101370000     4.0088460000     1.4377810000
| 18>  O        3.0900660000     4.2093760000     0.3116230000
| 19>  H        3.0402660000    -1.0391610000    -2.2582080000
| 20>  H        3.1909440000     0.5817480000    -2.1648510000
| 21>  H        4.6919290000    -0.3886130000    -0.5053210000
| 22>  H        3.3058600000    -1.3343440000     0.0347140000
| 23>  H        2.1397050000     0.8149830000     0.7314320000
| 24>  H        5.1268310000     1.4323010000     0.9237900000
| 25>  H        4.2900480000     2.5819650000     2.9898630000
| 26>  H        2.6364560000     2.5515180000     2.3644500000
| 27>  H        4.9730210000     4.1255930000     1.1766270000
| 28>  H        3.6588380000     4.7989780000     2.1492220000
| 29>  H        3.1285590000     3.4044570000    -0.2169180000
| 30> *
| 31>
| 32>                          ****END OF INPUT****
 Total Charge           Charge          ....    0
 Multiplicity           Mult            ....    1
 Number of Electrons    NEL             ....   56
 Basis Dimension        Dim             ....  153

MULLIKEN ATOMIC CHARGES
-----------------------
   0 N :   -0.228343
   1 C :    0.141840
   2 C :   -0.081888
   3 C :   -0.112718
   4 C :    0.030834
   5 C :    0.159702
   6 O :   -0.286571
   7 H :    0.091338
   8 H :    0.086981
   9 H :   -0.006310
  10 H :    0.015025
  11 H :    0.005673
  12 H :   -0.004553
  13 H :    0.016339
  14 H :    0.016209
  15 H :   -0.004214
  16 H :    0.015797
  17 H :    0.144859
Sum of atomic charges:   -0.0000000

LOEWDIN ATOMIC CHARGES
----------------------
   0 N :   -0.110810
   1 C :    0.005128
   2 C :   -0.047144
   3 C :   -0.051641
   4 C :   -0.061744
   5 C :    0.058390
   6 O :   -0.124061
   7 H :    0.053190
   8 H :    0.049541
   9 H :    0.004017
  10 H :    0.031406
  11 H :    0.026501
  12 H :    0.021144
  13 H :    0.037002
  14 H :    0.030968
  15 H :    0.000616
  16 H :    0.020430
  17 H :    0.057066

  Mayer bond orders larger than 0.1
B(  0-N ,  1-C ) :   1.0607 B(  0-N ,  7-H ) :   0.9651 B(  0-N ,  8-H ) :   0.9720
B(  1-C ,  2-C ) :   1.0646 B(  1-C ,  9-H ) :   0.9258 B(  1-C , 10-H ) :   0.9116
B(  2-C ,  3-C ) :   1.8634 B(  2-C , 11-H ) :   0.9583 B(  3-C ,  4-C ) :   1.0590
B(  3-C , 12-H ) :   0.9503 B(  4-C ,  5-C ) :   1.0649 B(  4-C , 13-H ) :   0.8987
B(  4-C , 14-H ) :   0.9259 B(  5-C ,  6-O ) :   1.0716 B(  5-C , 15-H ) :   0.9334
B(  5-C , 16-H ) :   0.9374 B(  6-O , 17-H ) :   0.9772

FINAL SINGLE POINT ENERGY      -326.431013853087

DIPOLE MOMENT
-------------
                                X             Y             Z
Electronic contribution:     -1.10281       1.63400      -0.43819
Nuclear contribution   :      1.77687      -2.32331       0.34551
                        -----------------------------------------
Total Dipole Moment    :      0.67406      -0.68931      -0.09268
                        -----------------------------------------
Magnitude (a.u.)       :      0.96855
Magnitude (Debye)      :      2.46187

                             ****ORCA TERMINATED NORMALLY****
TOTAL RUN TIME: 0 days 0 hours 0 minutes 7 seconds 662 msec
