                         Program Version 3.0.3 - RELEASE   -
|  1> ! RI PBE def2-SVP def2-SVP/J NBO PAL2
|  2> % maxcore 2000
|  3> % output
|  4>     # printlevel mini
|  5>     print[ P_Basis ] 0
|  6>     print[ P_SCFInfo ] 1
|  7>     print[ P_SCFIterInfo ] 1
|  8>     print[ P_OrbEn ] 0
|  9>     print[ P_Cartesian ] 0
| 10> end
| 11> *xyz 0 1
| 12>  N        0.8712230000     0.1941690000     0.5706270000
| 13>  C        2.2899430000     0.1859120000     0.2833250000
| 14>  C        2.7975030000    -1.1305120000    -0.2348080000
| 15>  C        1.9773910000    -2.1270190000    -0.5558340000
| 16>  C        4.2976920000    -1.2029310000    -0.3408480000
| 17>  C        4.8292780000    -2.2592040000    -1.2900570000
| 18>  O        4.4369340000    -2.0369630000    -2.6253860000
| 19>  H        0.5594400000     1.1290910000     0.7963510000
| 20>  H        0.6662580000    -0.3942220000     1.3690490000
| 21>  H        2.9230870000     0.4665220000     1.1434850000
| 22>  H        2.4896930000     0.9464360000    -0.4822120000
| 23>  H        0.9050560000    -2.0055260000    -0.4665870000
| 24>  H        2.3445290000    -3.0830880000    -0.9122730000
| 25>  H        4.7195500000    -1.3703220000     0.6590560000
| 26>  H        4.6739500000    -0.2246090000    -0.6641870000
| 27>  H        4.5307150000    -3.2616860000    -0.9512190000
| 28>  H        5.9213550000    -2.2353490000    -1.2866650000
| 29>  H        3.4783040000    -1.9460880000    -2.6306090000
| 30> *
| 31>
| 32>                          ****END OF INPUT****
 Total Charge           Charge          ....    0
 Multiplicity           Mult            ....    1
 Number of Electrons    NEL             ....   56
 Basis Dimension        Dim             ....  153

MULLIKEN ATOMIC CHARGES
-----------------------
   0 N :   -0.196554
   1 C :    0.136491
   2 C :   -0.242122
   3 C :   -0.044254
   4 C :    0.042203
   5 C :    0.155068
   6 O :   -0.285069
   7 H :    0.092136
   8 H :    0.093878
   9 H :   -0.001442
  10 H :    0.024266
  11 H :    0.018080
  12 H :    0.015298
  13 H :    0.022042
  14 H :    0.014037
  15 H :   -0.004862
  16 H :    0.012499
  17 H :    0.148305
Sum of atomic charges:   -0.0000000

LOEWDIN ATOMIC CHARGES
----------------------
   0 N :   -0.098574
   1 C :    0.008183
   2 C :   -0.040756
   3 C :   -0.093020
   4 C :   -0.059306
   5 C :    0.056446
   6 O :   -0.123325
   7 H :    0.056245
   8 H :    0.054101
   9 H :    0.008915
  10 H :    0.035593
  11 H :    0.022231
  12 H :    0.018860
  13 H :    0.039610
  14 H :    0.031307
  15 H :    0.000557
  16 H :    0.023337
  17 H :    0.059594

  Mayer bond orders larger than 0.1
B(  0-N ,  1-C ) :   1.1260 B(  0-N ,  7-H ) :   0.9604 B(  0-N ,  8-H ) :   0.9635
B(  1-C ,  2-C ) :   1.0194 B(  1-C ,  9-H ) :   0.9167 B(  1-C , 10-H ) :   0.9051
B(  2-C ,  3-C ) :   1.9888 B(  2-C ,  4-C ) :   1.0210 B(  3-C , 11-H ) :   0.9096
B(  3-C , 12-H ) :   0.9231 B(  4-C ,  5-C ) :   1.0883 B(  4-C , 13-H ) :   0.8930
B(  4-C , 14-H ) :   0.9134 B(  5-C ,  6-O ) :   1.0859 B(  5-C , 15-H ) :   0.9193
B(  5-C , 16-H ) :   0.9341 B(  6-O , 17-H ) :   0.9784

FINAL SINGLE POINT ENERGY      -326.430083416928

DIPOLE MOMENT
-------------
                                X             Y             Z
Electronic contribution:      0.32562      -0.58585      -2.19623
Nuclear contribution   :     -0.57881       1.04307       3.20559
                        -----------------------------------------
Total Dipole Moment    :     -0.25318       0.45722       1.00936
                        -----------------------------------------
Magnitude (a.u.)       :      1.13665
Magnitude (Debye)      :      2.88913

                             ****ORCA TERMINATED NORMALLY****
TOTAL RUN TIME: 0 days 0 hours 0 minutes 7 seconds 852 msec
