                         Program Version 3.0.3 - RELEASE   -
|  1> ! RI PBE def2-SVP def2-SVP/J NBO PAL2
|  2> % maxcore 2000
|  3> % output
|  4>     # printlevel mini
|  5>     print[ P_Basis ] 0
|  6>     print[ P_SCFInfo ] 1
|  7>     print[ P_SCFIterInfo ] 1
|  8>     print[ P_OrbEn ] 0
|  9>     print[ P_Cartesian ] 0
| 10> end
| 11> *xyz 0 1
| 12>  N        0.9540340000    -0.1424680000     0.2097090000
| 13>  C        2.3891430000     0.0572430000     0.0379030000
| 14>  C        2.9256530000    -0.7969770000    -1.0122210000
| 15>  C        3.3729540000    -1.5107650000    -1.8706320000
| 16>  C        3.9142460000    -2.3927100000    -2.8900690000
| 17>  C        4.3483890000    -3.7446230000    -2.3250590000
| 18>  O        4.9181920000    -4.5749850000    -3.3093330000
| 19>  H        0.6217560000     0.4135840000     0.9882340000
| 20>  H        0.7661150000    -1.1126630000     0.4304660000
| 21>  H        2.9779940000    -0.1171900000     0.9524510000
| 22>  H        2.5559650000     1.1034260000    -0.2409260000
| 23>  H        4.7755950000    -1.9230010000    -3.3758840000
| 24>  H        3.1610510000    -2.5501440000    -3.6719400000
| 25>  H        3.4957390000    -4.2277010000    -1.8311500000
| 26>  H        5.1207780000    -3.5923210000    -1.5690620000
| 27>  H        4.2348850000    -4.8190040000    -3.9386870000
| 28> *
| 29>
| 30>                          ****END OF INPUT****
 Total Charge           Charge          ....    0
 Multiplicity           Mult            ....    1
 Number of Electrons    NEL             ....   54
 Basis Dimension        Dim             ....  143

MULLIKEN ATOMIC CHARGES
-----------------------
   0 N :   -0.217566
   1 C :    0.162902
   2 C :   -0.178429
   3 C :   -0.151707
   4 C :    0.059576
   5 C :    0.129852
   6 O :   -0.274895
   7 H :    0.088645
   8 H :    0.092107
   9 H :    0.016036
  10 H :    0.024457
  11 H :    0.034313
  12 H :    0.022978
  13 H :    0.009166
  14 H :    0.027582
  15 H :    0.154982
Sum of atomic charges:   -0.0000000

LOEWDIN ATOMIC CHARGES
----------------------
   0 N :   -0.107966
   1 C :    0.001120
   2 C :   -0.066872
   3 C :   -0.059820
   4 C :   -0.069254
   5 C :    0.060807
   6 O :   -0.117185
   7 H :    0.052848
   8 H :    0.052484
   9 H :    0.020876
  10 H :    0.042006
  11 H :    0.047779
  12 H :    0.041222
  13 H :    0.007326
  14 H :    0.025559
  15 H :    0.069071

  Mayer bond orders larger than 0.1
B(  0-N ,  1-C ) :   1.0790 B(  0-N ,  7-H ) :   0.9622 B(  0-N ,  8-H ) :   0.9681
B(  1-C ,  2-C ) :   1.0660 B(  1-C ,  9-H ) :   0.9037 B(  1-C , 10-H ) :   0.8913
B(  2-C ,  3-C ) :   2.6486 B(  3-C ,  4-C ) :   1.0351 B(  4-C ,  5-C ) :   1.0514
B(  4-C , 11-H ) :   0.8884 B(  4-C , 12-H ) :   0.8917 B(  5-C ,  6-O ) :   1.0739
B(  5-C , 13-H ) :   0.9462 B(  5-C , 14-H ) :   0.9423 B(  6-O , 15-H ) :   0.9860

FINAL SINGLE POINT ENERGY      -325.188104917050

DIPOLE MOMENT
-------------
                                X             Y             Z
Electronic contribution:      1.16343      -0.66822      -1.66249
Nuclear contribution   :     -1.55153       0.61606       2.04348
                        -----------------------------------------
Total Dipole Moment    :     -0.38809      -0.05217       0.38099
                        -----------------------------------------
Magnitude (a.u.)       :      0.54634
Magnitude (Debye)      :      1.38869

                             ****ORCA TERMINATED NORMALLY****
TOTAL RUN TIME: 0 days 0 hours 0 minutes 6 seconds 669 msec
