                         Program Version 3.0.3 - RELEASE   -
|  1> ! RI PBE def2-SVP def2-SVP/J NBO PAL2
|  2> % maxcore 2000
|  3> % output
|  4>     # printlevel mini
|  5>     print[ P_Basis ] 0
|  6>     print[ P_SCFInfo ] 1
|  7>     print[ P_SCFIterInfo ] 1
|  8>     print[ P_OrbEn ] 0
|  9>     print[ P_Cartesian ] 0
| 10> end
| 11> *xyz 0 1
| 12>  N        0.8763260000    -0.0035470000    -0.1811410000
| 13>  C        2.3219890000     0.1224880000    -0.0901160000
| 14>  C        2.9481690000    -1.2103840000     0.2995410000
| 15>  C        4.4383430000    -1.1714700000     0.2881190000
| 16>  C        5.2281680000    -1.4155890000     1.3282490000
| 17>  C        6.7177000000    -1.3626850000     1.2787800000
| 18>  O        7.2547160000    -0.4248530000     2.1956790000
| 19>  H        0.4589000000     0.8684810000    -0.4806700000
| 20>  H        0.4832450000    -0.2191570000     0.7275650000
| 21>  H        2.6616710000     0.8936370000     0.6192260000
| 22>  H        2.6970750000     0.4172660000    -1.0759510000
| 23>  H        2.5864270000    -1.9657780000    -0.4077680000
| 24>  H        2.5934860000    -1.5087640000     1.2923150000
| 25>  H        4.9040860000    -0.9221970000    -0.6666030000
| 26>  H        4.7910070000    -1.6588300000     2.2958030000
| 27>  H        7.0493970000    -1.1525430000     0.2525020000
| 28>  H        7.1464690000    -2.3258060000     1.5710960000
| 29>  H        6.8315170000     0.4210210000     2.0247630000
| 30> *
| 31>
| 32>                          ****END OF INPUT****
 Total Charge           Charge          ....    0
 Multiplicity           Mult            ....    1
 Number of Electrons    NEL             ....   56
 Basis Dimension        Dim             ....  153

MULLIKEN ATOMIC CHARGES
-----------------------
   0 N :   -0.203084
   1 C :    0.032936
   2 C :    0.061955
   3 C :   -0.066800
   4 C :   -0.132590
   5 C :    0.258481
   6 O :   -0.298711
   7 H :    0.088401
   8 H :    0.087688
   9 H :   -0.001098
  10 H :    0.005365
  11 H :    0.027763
  12 H :   -0.002069
  13 H :   -0.006723
  14 H :   -0.004061
  15 H :   -0.008571
  16 H :    0.012531
  17 H :    0.148587
Sum of atomic charges:    0.0000000

LOEWDIN ATOMIC CHARGES
----------------------
   0 N :   -0.112552
   1 C :    0.007689
   2 C :   -0.047720
   3 C :   -0.032125
   4 C :   -0.071544
   5 C :    0.056035
   6 O :   -0.125740
   7 H :    0.053045
   8 H :    0.049882
   9 H :   -0.000549
  10 H :    0.018967
  11 H :    0.037622
  12 H :    0.024623
  13 H :    0.021207
  14 H :    0.022951
  15 H :    0.006131
  16 H :    0.027192
  17 H :    0.064888

  Mayer bond orders larger than 0.1
B(  0-N ,  1-C ) :   1.0956 B(  0-N ,  7-H ) :   0.9643 B(  0-N ,  8-H ) :   0.9686
B(  1-C ,  2-C ) :   1.0767 B(  1-C ,  9-H ) :   0.9327 B(  1-C , 10-H ) :   0.9358
B(  2-C ,  3-C ) :   1.0538 B(  2-C , 11-H ) :   0.9032 B(  2-C , 12-H ) :   0.9300
B(  3-C ,  4-C ) :   1.8778 B(  3-C , 13-H ) :   0.9473 B(  4-C ,  5-C ) :   1.0619
B(  4-C , 14-H ) :   0.9561 B(  5-C ,  6-O ) :   1.0263 B(  5-C , 15-H ) :   0.9354
B(  5-C , 16-H ) :   0.9168 B(  6-O , 17-H ) :   0.9858

FINAL SINGLE POINT ENERGY      -326.428571638142

DIPOLE MOMENT
-------------
                                X             Y             Z
Electronic contribution:      3.77938      -0.36456       1.85031
Nuclear contribution   :     -4.35131       0.90573      -1.97429
                        -----------------------------------------
Total Dipole Moment    :     -0.57193       0.54118      -0.12398
                        -----------------------------------------
Magnitude (a.u.)       :      0.79709
Magnitude (Debye)      :      2.02604

                             ****ORCA TERMINATED NORMALLY****
TOTAL RUN TIME: 0 days 0 hours 0 minutes 7 seconds 533 msec
