                         Program Version 3.0.3 - RELEASE   -
|  1> ! RI PBE def2-SVP def2-SVP/J NBO PAL2
|  2> % maxcore 2000
|  3> % output
|  4>     # printlevel mini
|  5>     print[ P_Basis ] 0
|  6>     print[ P_SCFInfo ] 1
|  7>     print[ P_SCFIterInfo ] 1
|  8>     print[ P_OrbEn ] 0
|  9>     print[ P_Cartesian ] 0
| 10> end
| 11> *xyz 0 1
| 12>  N        0.7009750000     0.1645900000    -0.0981600000
| 13>  C        1.9535970000    -0.5188870000     0.1812270000
| 14>  C        2.9731140000    -0.2036600000    -0.9090720000
| 15>  C        4.3284360000    -0.7990180000    -0.6635820000
| 16>  C        5.3926200000    -0.0507780000    -0.3922640000
| 17>  C        4.4156150000    -2.2982430000    -0.7507390000
| 18>  O        5.7159090000    -2.8258150000    -0.7191470000
| 19>  H        0.0371570000     0.0160350000     0.6512100000
| 20>  H        0.2780560000    -0.2027670000    -0.9424680000
| 21>  H        1.8455930000    -1.6096440000     0.2847170000
| 22>  H        2.3381500000    -0.1486010000     1.1363440000
| 23>  H        3.0523570000     0.8823170000    -0.9957200000
| 24>  H        2.5812530000    -0.5721810000    -1.8674700000
| 25>  H        5.3205000000     1.0301920000    -0.3519840000
| 26>  H        6.3591570000    -0.4944110000    -0.1835620000
| 27>  H        3.8761350000    -2.6249690000    -1.6549010000
| 28>  H        3.8896980000    -2.7501580000     0.0966160000
| 29>  H        6.2194870000    -2.4094010000    -1.4246460000
| 30> *
| 31>
| 32>                          ****END OF INPUT****
 Total Charge           Charge          ....    0
 Multiplicity           Mult            ....    1
 Number of Electrons    NEL             ....   56
 Basis Dimension        Dim             ....  153

MULLIKEN ATOMIC CHARGES
-----------------------
   0 N :   -0.211973
   1 C :    0.056476
   2 C :    0.055842
   3 C :   -0.232849
   4 C :   -0.034535
   5 C :    0.248839
   6 O :   -0.276152
   7 H :    0.090734
   8 H :    0.087454
   9 H :    0.000684
  10 H :    0.008220
  11 H :    0.008699
  12 H :    0.000875
  13 H :    0.014596
  14 H :    0.000452
  15 H :   -0.002913
  16 H :    0.030973
  17 H :    0.154579
Sum of atomic charges:    0.0000000

LOEWDIN ATOMIC CHARGES
----------------------
   0 N :   -0.111927
   1 C :    0.010182
   2 C :   -0.038368
   3 C :   -0.052714
   4 C :   -0.080856
   5 C :    0.054451
   6 O :   -0.109078
   7 H :    0.054214
   8 H :    0.049842
   9 H :   -0.001316
  10 H :    0.022973
  11 H :    0.031789
  12 H :    0.023488
  13 H :    0.022571
  14 H :    0.015204
  15 H :    0.010362
  16 H :    0.031320
  17 H :    0.067863

  Mayer bond orders larger than 0.1
B(  0-N ,  1-C ) :   1.0907 B(  0-N ,  7-H ) :   0.9643 B(  0-N ,  8-H ) :   0.9690
B(  1-C ,  2-C ) :   1.0832 B(  1-C ,  9-H ) :   0.9333 B(  1-C , 10-H ) :   0.9321
B(  2-C ,  3-C ) :   1.0415 B(  2-C , 11-H ) :   0.9128 B(  2-C , 12-H ) :   0.9141
B(  3-C ,  4-C ) :   1.9897 B(  3-C ,  5-C ) :   0.9923 B(  4-C , 13-H ) :   0.9337
B(  4-C , 14-H ) :   0.9212 B(  5-C ,  6-O ) :   1.0855 B(  5-C , 15-H ) :   0.9217
B(  5-C , 16-H ) :   0.9141 B(  6-O , 17-H ) :   0.9758

FINAL SINGLE POINT ENERGY      -326.428315680898

DIPOLE MOMENT
-------------
                                X             Y             Z
Electronic contribution:      3.23379      -1.79625      -0.35061
Nuclear contribution   :     -3.77543       1.67875       0.03150
                        -----------------------------------------
Total Dipole Moment    :     -0.54164      -0.11750      -0.31911
                        -----------------------------------------
Magnitude (a.u.)       :      0.63954
Magnitude (Debye)      :      1.62558

                             ****ORCA TERMINATED NORMALLY****
TOTAL RUN TIME: 0 days 0 hours 0 minutes 7 seconds 532 msec
