                         Program Version 3.0.3 - RELEASE   -
|  1> ! RI PBE def2-SVP def2-SVP/J NBO PAL2
|  2> % maxcore 2000
|  3> % output
|  4>     # printlevel mini
|  5>     print[ P_Basis ] 0
|  6>     print[ P_SCFInfo ] 1
|  7>     print[ P_SCFIterInfo ] 1
|  8>     print[ P_OrbEn ] 0
|  9>     print[ P_Cartesian ] 0
| 10> end
| 11> *xyz 0 1
| 12>  N        0.9642790000    -0.2174820000     0.0707120000
| 13>  C        2.4162420000    -0.2138050000     0.0329250000
| 14>  C        2.9675060000     0.1089740000     1.4198620000
| 15>  C        4.4192030000     0.0989980000     1.4710670000
| 16>  C        5.6228210000     0.0853430000     1.4770120000
| 17>  C        7.0788390000     0.0436570000     1.5323490000
| 18>  O        7.6073640000    -1.2666340000     1.5720190000
| 19>  H        0.5846310000    -0.5613820000    -0.8016620000
| 20>  H        0.6071100000     0.7221240000     0.1969140000
| 21>  H        2.8507240000     0.4894790000    -0.6923560000
| 22>  H        2.7557990000    -1.2122540000    -0.2538940000
| 23>  H        2.5592630000    -0.6113600000     2.1357710000
| 24>  H        2.6041480000     1.0943430000     1.7362590000
| 25>  H        7.4209650000     0.6330670000     2.3947590000
| 26>  H        7.4995440000     0.5117370000     0.6385640000
| 27>  H        7.1278820000    -1.7559750000     2.2458780000
| 28> *
| 29>
| 30>                          ****END OF INPUT****
 Total Charge           Charge          ....    0
 Multiplicity           Mult            ....    1
 Number of Electrons    NEL             ....   54
 Basis Dimension        Dim             ....  143

MULLIKEN ATOMIC CHARGES
-----------------------
   0 N :   -0.198614
   1 C :    0.028034
   2 C :    0.067225
   3 C :   -0.117643
   4 C :   -0.230828
   5 C :    0.262327
   6 O :   -0.285146
   7 H :    0.091274
   8 H :    0.088522
   9 H :    0.009851
  10 H :    0.019129
  11 H :    0.036134
  12 H :    0.023002
  13 H :    0.023978
  14 H :    0.027965
  15 H :    0.154791
Sum of atomic charges:   -0.0000000

LOEWDIN ATOMIC CHARGES
----------------------
   0 N :   -0.110460
   1 C :    0.015310
   2 C :   -0.054286
   3 C :   -0.047420
   4 C :   -0.098468
   5 C :    0.050058
   6 O :   -0.117929
   7 H :    0.055329
   8 H :    0.050721
   9 H :    0.004552
  10 H :    0.025377
  11 H :    0.048759
  12 H :    0.043538
  13 H :    0.024900
  14 H :    0.040679
  15 H :    0.069341

  Mayer bond orders larger than 0.1
B(  0-N ,  1-C ) :   1.1072 B(  0-N ,  7-H ) :   0.9636 B(  0-N ,  8-H ) :   0.9682
B(  1-C ,  2-C ) :   1.0714 B(  1-C ,  9-H ) :   0.9384 B(  1-C , 10-H ) :   0.9389
B(  2-C ,  3-C ) :   1.0459 B(  2-C , 11-H ) :   0.8861 B(  2-C , 12-H ) :   0.8987
B(  3-C ,  4-C ) :   2.6581 B(  4-C ,  5-C ) :   1.0214 B(  5-C ,  6-O ) :   1.0632
B(  5-C , 13-H ) :   0.9228 B(  5-C , 14-H ) :   0.8984 B(  6-O , 15-H ) :   0.9839

FINAL SINGLE POINT ENERGY      -325.189020078617

DIPOLE MOMENT
-------------
                                X             Y             Z
Electronic contribution:      4.87051      -0.83739       1.72334
Nuclear contribution   :     -5.52462       1.25590      -1.81645
                        -----------------------------------------
Total Dipole Moment    :     -0.65411       0.41851      -0.09311
                        -----------------------------------------
Magnitude (a.u.)       :      0.78210
Magnitude (Debye)      :      1.98793

                             ****ORCA TERMINATED NORMALLY****
TOTAL RUN TIME: 0 days 0 hours 0 minutes 6 seconds 666 msec
