                         Program Version 3.0.3 - RELEASE   -
|  1> ! RI PBE def2-SVP def2-SVP/J NBO PAL2
|  2> % maxcore 2000
|  3> % output
|  4>     # printlevel mini
|  5>     print[ P_Basis ] 0
|  6>     print[ P_SCFInfo ] 1
|  7>     print[ P_SCFIterInfo ] 1
|  8>     print[ P_OrbEn ] 0
|  9>     print[ P_Cartesian ] 0
| 10> end
| 11> *xyz 0 1
| 12>  N        0.8895160000     0.0411500000    -0.1331720000
| 13>  C        2.3017850000    -0.2057930000     0.0814120000
| 14>  C        2.6303100000    -0.6206660000     1.4929410000
| 15>  C        3.4136980000     0.0654870000     2.3132220000
| 16>  C        2.8207790000    -1.2524120000    -0.8553240000
| 17>  N        2.0214410000    -1.9849370000    -1.5039690000
| 18>  O        2.6804920000    -2.9193260000    -2.2798970000
| 19>  H        0.4648750000     0.4210180000     0.7018940000
| 20>  H        0.4143630000    -0.8162290000    -0.3866120000
| 21>  H        2.8627840000     0.7159380000    -0.1293470000
| 22>  H        2.1500570000    -1.5387140000     1.8276110000
| 23>  H        3.8969480000     0.9841470000     1.9939680000
| 24>  H        3.6008040000    -0.2612580000     3.3295300000
| 25>  H        3.9003860000    -1.3867320000    -0.9314300000
| 26>  H        1.9639420000    -3.3720820000    -2.7331170000
| 27> *
| 28>
| 29>                          ****END OF INPUT****
 Total Charge           Charge          ....    0
 Multiplicity           Mult            ....    1
 Number of Electrons    NEL             ....   54
 Basis Dimension        Dim             ....  138

MULLIKEN ATOMIC CHARGES
-----------------------
   0 N :   -0.150728
   1 C :    0.071784
   2 C :   -0.065125
   3 C :   -0.030460
   4 C :   -0.016585
   5 N :   -0.054641
   6 O :   -0.172674
   7 H :    0.090090
   8 H :    0.093362
   9 H :    0.008434
  10 H :   -0.002761
  11 H :    0.020395
  12 H :    0.028292
  13 H :    0.008502
  14 H :    0.172115
Sum of atomic charges:    0.0000000

LOEWDIN ATOMIC CHARGES
----------------------
   0 N :   -0.078406
   1 C :   -0.006285
   2 C :   -0.043155
   3 C :   -0.063788
   4 C :   -0.026126
   5 N :   -0.019766
   6 O :   -0.050541
   7 H :    0.053032
   8 H :    0.044881
   9 H :    0.032249
  10 H :    0.023293
  11 H :    0.022422
  12 H :    0.026447
  13 H :    0.011461
  14 H :    0.074282

  Mayer bond orders larger than 0.1
B(  0-N ,  1-C ) :   1.1316 B(  0-N ,  7-H ) :   0.9663 B(  0-N ,  8-H ) :   0.9407
B(  1-C ,  2-C ) :   0.9877 B(  1-C ,  4-C ) :   0.9783 B(  1-C ,  9-H ) :   0.8882
B(  2-C ,  3-C ) :   1.9617 B(  2-C , 10-H ) :   0.9487 B(  3-C , 11-H ) :   0.9470
B(  3-C , 12-H ) :   0.9408 B(  4-C ,  5-N ) :   1.9010 B(  4-C ,  6-O ) :   0.1121
B(  4-C , 13-H ) :   0.9504 B(  5-N ,  6-O ) :   0.9918 B(  6-O , 14-H ) :   0.9761

FINAL SINGLE POINT ENERGY      -341.205692297236

DIPOLE MOMENT
-------------
                                X             Y             Z
Electronic contribution:     -0.41050      -3.10163      -4.59583
Nuclear contribution   :      0.27786       2.79576       4.85338
                        -----------------------------------------
Total Dipole Moment    :     -0.13264      -0.30587       0.25754
                        -----------------------------------------
Magnitude (a.u.)       :      0.42128
Magnitude (Debye)      :      1.07081

                             ****ORCA TERMINATED NORMALLY****
TOTAL RUN TIME: 0 days 0 hours 0 minutes 6 seconds 832 msec
