                         Program Version 3.0.3 - RELEASE   -
|  1> ! RI PBE def2-SVP def2-SVP/J NBO PAL2
|  2> % maxcore 2000
|  3> % output
|  4>     # printlevel mini
|  5>     print[ P_Basis ] 0
|  6>     print[ P_SCFInfo ] 1
|  7>     print[ P_SCFIterInfo ] 1
|  8>     print[ P_OrbEn ] 0
|  9>     print[ P_Cartesian ] 0
| 10> end
| 11> *xyz 0 1
| 12>  N        0.7916150000    -0.2418320000    -0.1190600000
| 13>  C        2.2375760000    -0.2417070000     0.0067270000
| 14>  C        2.7992330000    -0.5024140000     1.3757860000
| 15>  C        2.0971730000    -0.5126050000     2.4990140000
| 16>  C        2.9085110000    -1.1844450000    -1.0099640000
| 17>  N        2.0788720000    -1.6475290000    -1.9620200000
| 18>  O        4.0928580000    -1.4414470000    -0.9470010000
| 19>  H        0.3984460000     0.6308040000     0.2065390000
| 20>  H        0.3909800000    -0.9807160000     0.4478550000
| 21>  H        2.5933760000     0.7487600000    -0.3105650000
| 22>  H        3.8666740000    -0.6979590000     1.3891430000
| 23>  H        1.0289850000    -0.3198650000     2.5199770000
| 24>  H        2.5721380000    -0.7125160000     3.4518420000
| 25>  H        1.1271750000    -1.3183430000    -1.9702430000
| 26>  H        2.4550880000    -2.2077060000    -2.7060220000
| 27> *
| 28>
| 29>                          ****END OF INPUT****
 Total Charge           Charge          ....    0
 Multiplicity           Mult            ....    1
 Number of Electrons    NEL             ....   54
 Basis Dimension        Dim             ....  138

MULLIKEN ATOMIC CHARGES
-----------------------
   0 N :   -0.183765
   1 C :    0.019126
   2 C :   -0.045930
   3 C :   -0.049679
   4 C :   -0.032048
   5 N :   -0.027924
   6 O :   -0.206814
   7 H :    0.106481
   8 H :    0.104632
   9 H :    0.047698
  10 H :    0.026047
  11 H :   -0.008588
  12 H :    0.028869
  13 H :    0.108117
  14 H :    0.113778
Sum of atomic charges:   -0.0000000

LOEWDIN ATOMIC CHARGES
----------------------
   0 N :   -0.076211
   1 C :   -0.030012
   2 C :   -0.027339
   3 C :   -0.079382
   4 C :    0.017704
   5 N :    0.022249
   6 O :   -0.198373
   7 H :    0.060458
   8 H :    0.055905
   9 H :    0.053889
  10 H :    0.034521
  11 H :    0.007304
  12 H :    0.027908
  13 H :    0.059626
  14 H :    0.071755

  Mayer bond orders larger than 0.1
B(  0-N ,  1-C ) :   1.1211 B(  0-N ,  7-H ) :   0.9564 B(  0-N ,  8-H ) :   0.9662
B(  1-C ,  2-C ) :   1.0115 B(  1-C ,  4-C ) :   0.8481 B(  1-C ,  9-H ) :   0.8705
B(  2-C ,  3-C ) :   1.9957 B(  2-C , 10-H ) :   0.9447 B(  3-C , 11-H ) :   0.9339
B(  3-C , 12-H ) :   0.9452 B(  4-C ,  5-N ) :   1.3349 B(  4-C ,  6-O ) :   2.0962
B(  5-N ,  6-O ) :   0.1035 B(  5-N , 13-H ) :   0.9008 B(  5-N , 14-H ) :   0.9374

FINAL SINGLE POINT ENERGY      -341.297734718063

DIPOLE MOMENT
-------------
                                X             Y             Z
Electronic contribution:      3.15318      -1.40046      -3.42855
Nuclear contribution   :     -4.50064       1.71031       3.32415
                        -----------------------------------------
Total Dipole Moment    :     -1.34747       0.30985      -0.10441
                        -----------------------------------------
Magnitude (a.u.)       :      1.38657
Magnitude (Debye)      :      3.52438

                             ****ORCA TERMINATED NORMALLY****
TOTAL RUN TIME: 0 days 0 hours 0 minutes 6 seconds 991 msec
