                         Program Version 3.0.3 - RELEASE   -
|  1> ! RI PBE def2-SVP def2-SVP/J NBO PAL2
|  2> % maxcore 2000
|  3> % output
|  4>     # printlevel mini
|  5>     print[ P_Basis ] 0
|  6>     print[ P_SCFInfo ] 1
|  7>     print[ P_SCFIterInfo ] 1
|  8>     print[ P_OrbEn ] 0
|  9>     print[ P_Cartesian ] 0
| 10> end
| 11> *xyz 0 1
| 12>  N        0.8818880000    -0.1284520000    -0.0238650000
| 13>  C        2.3392590000    -0.0302640000    -0.0113150000
| 14>  C        2.9048020000     0.2316380000     1.3078040000
| 15>  C        3.3006220000     0.4523650000     2.4186850000
| 16>  C        3.0129330000    -1.2588770000    -0.6642910000
| 17>  N        2.1630070000    -2.0126840000    -1.3852960000
| 18>  O        4.1991470000    -1.4624430000    -0.5529950000
| 19>  H        0.4717010000     0.7929970000     0.0576210000
| 20>  H        0.5704700000    -0.6558600000     0.7840840000
| 21>  H        2.6183150000     0.7976460000    -0.6748050000
| 22>  H        3.6728770000     0.6407770000     3.3978540000
| 23>  H        1.1984570000    -1.7309740000    -1.4498700000
| 24>  H        2.5260230000    -2.7906690000    -1.9067230000
| 25> *
| 26>
| 27>                          ****END OF INPUT****
 Total Charge           Charge          ....    0
 Multiplicity           Mult            ....    1
 Number of Electrons    NEL             ....   52
 Basis Dimension        Dim             ....  128

MULLIKEN ATOMIC CHARGES
-----------------------
   0 N :   -0.181370
   1 C :    0.038125
   2 C :    0.368152
   3 C :   -0.487361
   4 C :   -0.021440
   5 N :   -0.034779
   6 O :   -0.182390
   7 H :    0.105646
   8 H :    0.108849
   9 H :    0.058130
  10 H :    0.000669
  11 H :    0.111412
  12 H :    0.116357
Sum of atomic charges:    0.0000000

LOEWDIN ATOMIC CHARGES
----------------------
   0 N :   -0.073875
   1 C :   -0.035239
   2 C :   -0.031954
   3 C :   -0.073600
   4 C :    0.017662
   5 N :    0.021863
   6 O :   -0.181300
   7 H :    0.063294
   8 H :    0.061827
   9 H :    0.061382
  10 H :    0.035803
  11 H :    0.060587
  12 H :    0.073553

  Mayer bond orders larger than 0.1
B(  0-N ,  1-C ) :   1.0948 B(  0-N ,  7-H ) :   0.9593 B(  0-N ,  8-H ) :   0.9691
B(  1-C ,  2-C ) :   0.9882 B(  1-C ,  4-C ) :   0.8270 B(  1-C ,  9-H ) :   0.8601
B(  2-C ,  3-C ) :   2.3481 B(  2-C , 10-H ) :  -0.1104 B(  3-C , 10-H ) :   1.1003
B(  4-C ,  5-N ) :   1.3178 B(  4-C ,  6-O ) :   2.1527 B(  5-N ,  6-O ) :   0.1055
B(  5-N , 11-H ) :   0.9009 B(  5-N , 12-H ) :   0.9383

FINAL SINGLE POINT ENERGY      -340.048998583831

DIPOLE MOMENT
-------------
                                X             Y             Z
Electronic contribution:      3.04660      -0.67135       0.16325
Nuclear contribution   :     -4.52185       0.87012      -0.29725
                        -----------------------------------------
Total Dipole Moment    :     -1.47525       0.19877      -0.13400
                        -----------------------------------------
Magnitude (a.u.)       :      1.49460
Magnitude (Debye)      :      3.79896

                             ****ORCA TERMINATED NORMALLY****
TOTAL RUN TIME: 0 days 0 hours 0 minutes 6 seconds 250 msec
