                         Program Version 3.0.3 - RELEASE   -
|  1> ! RI PBE def2-SVP def2-SVP/J NBO PAL2
|  2> % maxcore 2000
|  3> % output
|  4>     # printlevel mini
|  5>     print[ P_Basis ] 0
|  6>     print[ P_SCFInfo ] 1
|  7>     print[ P_SCFIterInfo ] 1
|  8>     print[ P_OrbEn ] 0
|  9>     print[ P_Cartesian ] 0
| 10> end
| 11> *xyz 0 1
| 12>  N        2.0438170000     1.2045810000    -0.6244540000
| 13>  C        2.9664870000     0.1423010000    -0.2495680000
| 14>  C        2.9238550000    -0.0818970000     1.2226340000
| 15>  C        3.9950940000    -0.0950360000     2.0181380000
| 16>  C        3.9168500000    -0.3260310000     3.4408950000
| 17>  N        4.9804130000    -0.3289540000     4.1415440000
| 18>  O        4.7086910000    -0.5628790000     5.4732480000
| 19>  H        1.9895380000     1.2950330000    -1.6308100000
| 20>  H        2.3615120000     2.0926430000    -0.2561080000
| 21>  H        4.0086570000     0.3090260000    -0.5614430000
| 22>  H        2.6298650000    -0.7726940000    -0.7528860000
| 23>  H        1.9325860000    -0.2302940000     1.6466760000
| 24>  H        4.9896290000     0.0687150000     1.6113010000
| 25>  H        2.9445070000    -0.4961970000     3.9073150000
| 26>  H        5.5786990000    -0.5409080000     5.8814180000
| 27> *
| 28>
| 29>                          ****END OF INPUT****
 Total Charge           Charge          ....    0
 Multiplicity           Mult            ....    1
 Number of Electrons    NEL             ....   54
 Basis Dimension        Dim             ....  138

MULLIKEN ATOMIC CHARGES
-----------------------
   0 N :   -0.228779
   1 C :    0.159009
   2 C :   -0.101512
   3 C :    0.035896
   4 C :    0.003872
   5 N :   -0.052582
   6 O :   -0.168031
   7 H :    0.090721
   8 H :    0.088536
   9 H :   -0.008478
  10 H :    0.019038
  11 H :    0.002899
  12 H :   -0.005393
  13 H :   -0.007766
  14 H :    0.172571
Sum of atomic charges:   -0.0000000

LOEWDIN ATOMIC CHARGES
----------------------
   0 N :   -0.109598
   1 C :    0.006947
   2 C :   -0.028470
   3 C :   -0.049649
   4 C :   -0.038369
   5 N :   -0.017803
   6 O :   -0.045280
   7 H :    0.052715
   8 H :    0.051497
   9 H :    0.004666
  10 H :    0.033540
  11 H :    0.026238
  12 H :    0.029471
  13 H :    0.009066
  14 H :    0.075029

  Mayer bond orders larger than 0.1
B(  0-N ,  1-C ) :   1.0599 B(  0-N ,  7-H ) :   0.9657 B(  0-N ,  8-H ) :   0.9722
B(  1-C ,  2-C ) :   1.0612 B(  1-C ,  9-H ) :   0.9263 B(  1-C , 10-H ) :   0.9080
B(  2-C ,  3-C ) :   1.7456 B(  2-C ,  5-N ) :   0.1105 B(  2-C , 11-H ) :   0.9637
B(  3-C ,  4-C ) :   1.1114 B(  3-C , 12-H ) :   0.9598 B(  4-C ,  5-N ) :   1.7945
B(  4-C ,  6-O ) :   0.1002 B(  4-C , 13-H ) :   0.9507 B(  5-N ,  6-O ) :   1.0024
B(  6-O , 14-H ) :   0.9746

FINAL SINGLE POINT ENERGY      -341.217454771958

DIPOLE MOMENT
-------------
                                X             Y             Z
Electronic contribution:      2.94229      -1.37292       7.16314
Nuclear contribution   :     -2.63309       1.56501      -7.51323
                        -----------------------------------------
Total Dipole Moment    :      0.30919       0.19209      -0.35009
                        -----------------------------------------
Magnitude (a.u.)       :      0.50504
Magnitude (Debye)      :      1.28370

                             ****ORCA TERMINATED NORMALLY****
TOTAL RUN TIME: 0 days 0 hours 0 minutes 6 seconds 165 msec
