                         Program Version 3.0.3 - RELEASE   -
|  1> ! RI PBE def2-SVP def2-SVP/J NBO PAL2
|  2> % maxcore 2000
|  3> % output
|  4>     # printlevel mini
|  5>     print[ P_Basis ] 0
|  6>     print[ P_SCFInfo ] 1
|  7>     print[ P_SCFIterInfo ] 1
|  8>     print[ P_OrbEn ] 0
|  9>     print[ P_Cartesian ] 0
| 10> end
| 11> *xyz 0 1
| 12>  N        3.8929750000     1.1038710000    -0.0160200000
| 13>  C        2.7807410000     0.1826300000     0.1060040000
| 14>  C        3.1954580000    -1.2463590000     0.0919390000
| 15>  C        4.4467910000    -1.6907980000     0.0932330000
| 16>  C        4.7226620000    -3.1487780000     0.0745340000
| 17>  N        6.0435820000    -3.4695370000     0.1286970000
| 18>  O        3.8565170000    -3.9993590000     0.0059920000
| 19>  H        3.5836760000     2.0561190000     0.1253510000
| 20>  H        4.2921580000     1.0530640000    -0.9455880000
| 21>  H        2.0020950000     0.3115000000    -0.6649880000
| 22>  H        2.2735590000     0.3762990000     1.0600420000
| 23>  H        2.3999000000    -1.9881200000     0.0724750000
| 24>  H        5.2769240000    -0.9920640000     0.1291870000
| 25>  H        6.7510160000    -2.7737470000     0.2741240000
| 26>  H        6.2942660000    -4.4413210000     0.1785190000
| 27> *
| 28>
| 29>                          ****END OF INPUT****
 Total Charge           Charge          ....    0
 Multiplicity           Mult            ....    1
 Number of Electrons    NEL             ....   54
 Basis Dimension        Dim             ....  138

MULLIKEN ATOMIC CHARGES
-----------------------
   0 N :   -0.203657
   1 C :    0.136731
   2 C :   -0.096224
   3 C :   -0.063719
   4 C :    0.043764
   5 N :   -0.048554
   6 O :   -0.210523
   7 H :    0.092126
   8 H :    0.097222
   9 H :    0.013246
  10 H :    0.029406
  11 H :    0.016880
  12 H :   -0.021102
  13 H :    0.104833
  14 H :    0.109573
Sum of atomic charges:   -0.0000000

LOEWDIN ATOMIC CHARGES
----------------------
   0 N :   -0.103661
   1 C :    0.003014
   2 C :    0.005895
   3 C :   -0.093388
   4 C :    0.020692
   5 N :    0.012441
   6 O :   -0.201615
   7 H :    0.056001
   8 H :    0.054079
   9 H :    0.016925
  10 H :    0.040605
  11 H :    0.033733
  12 H :    0.016003
  13 H :    0.068759
  14 H :    0.070518

  Mayer bond orders larger than 0.1
B(  0-N ,  1-C ) :   1.1269 B(  0-N ,  7-H ) :   0.9629 B(  0-N ,  8-H ) :   0.9624
B(  1-C ,  2-C ) :   1.0318 B(  1-C ,  9-H ) :   0.9113 B(  1-C , 10-H ) :   0.9037
B(  2-C ,  3-C ) :   1.8815 B(  2-C , 11-H ) :   0.9442 B(  3-C ,  4-C ) :   0.9318
B(  3-C , 12-H ) :   0.9249 B(  4-C ,  5-N ) :   1.2386 B(  4-C ,  6-O ) :   2.0970
B(  5-N , 13-H ) :   0.9418 B(  5-N , 14-H ) :   0.9375

FINAL SINGLE POINT ENERGY      -341.297970310223

DIPOLE MOMENT
-------------
                                X             Y             Z
Electronic contribution:      1.03745      -5.86337       0.10253
Nuclear contribution   :     -0.33395       7.04938      -0.25805
                        -----------------------------------------
Total Dipole Moment    :      0.70350       1.18600      -0.15552
                        -----------------------------------------
Magnitude (a.u.)       :      1.38770
Magnitude (Debye)      :      3.52724

                             ****ORCA TERMINATED NORMALLY****
TOTAL RUN TIME: 0 days 0 hours 0 minutes 6 seconds 563 msec
