                         Program Version 3.0.3 - RELEASE   -
|  1> ! RI PBE def2-SVP def2-SVP/J NBO PAL2
|  2> % maxcore 2000
|  3> % output
|  4>     # printlevel mini
|  5>     print[ P_Basis ] 0
|  6>     print[ P_SCFInfo ] 1
|  7>     print[ P_SCFIterInfo ] 1
|  8>     print[ P_OrbEn ] 0
|  9>     print[ P_Cartesian ] 0
| 10> end
| 11> *xyz 0 1
| 12>  N        1.6028120000    -0.6730540000    -0.0347720000
| 13>  C        2.9976360000    -0.3954040000    -0.3231640000
| 14>  C        3.1751090000     0.4711600000    -1.5380160000
| 15>  C        2.1547670000     1.0285880000    -2.1935440000
| 16>  C        4.5321390000     0.7078030000    -2.0056170000
| 17>  N        5.5297360000     0.2064910000    -1.3960440000
| 18>  O        6.7210670000     0.5613990000    -1.9946040000
| 19>  H        1.5138200000    -1.0990010000     0.8777690000
| 20>  H        1.2253410000    -1.3297920000    -0.7071570000
| 21>  H        3.6190010000    -1.2923680000    -0.4561020000
| 22>  H        3.4317820000     0.1312100000     0.5334130000
| 23>  H        1.1365330000     0.8908400000    -1.8539220000
| 24>  H        2.3260190000     1.6473540000    -3.0672470000
| 25>  H        4.6810140000     1.3333920000    -2.8877220000
| 26>  H        7.3801220000     0.1254000000    -1.4473710000
| 27> *
| 28>
| 29>                          ****END OF INPUT****
 Total Charge           Charge          ....    0
 Multiplicity           Mult            ....    1
 Number of Electrons    NEL             ....   54
 Basis Dimension        Dim             ....  138

MULLIKEN ATOMIC CHARGES
-----------------------
   0 N :   -0.201314
   1 C :    0.165625
   2 C :   -0.145087
   3 C :   -0.021926
   4 C :    0.020799
   5 N :   -0.055267
   6 O :   -0.164442
   7 H :    0.090807
   8 H :    0.093231
   9 H :    0.007103
  10 H :    0.019991
  11 H :    0.021464
  12 H :    0.012735
  13 H :   -0.016286
  14 H :    0.172568
Sum of atomic charges:    0.0000000

LOEWDIN ATOMIC CHARGES
----------------------
   0 N :   -0.100169
   1 C :    0.010966
   2 C :   -0.053651
   3 C :   -0.046872
   4 C :   -0.032275
   5 N :   -0.020760
   6 O :   -0.044775
   7 H :    0.055501
   8 H :    0.053263
   9 H :    0.013454
  10 H :    0.037020
  11 H :    0.022554
  12 H :    0.021483
  13 H :    0.009227
  14 H :    0.075034

  Mayer bond orders larger than 0.1
B(  0-N ,  1-C ) :   1.1189 B(  0-N ,  7-H ) :   0.9640 B(  0-N ,  8-H ) :   0.9653
B(  1-C ,  2-C ) :   1.0275 B(  1-C ,  9-H ) :   0.9066 B(  1-C , 10-H ) :   0.9031
B(  2-C ,  3-C ) :   1.8894 B(  2-C ,  4-C ) :   1.0869 B(  3-C ,  5-N ) :   0.1090
B(  3-C , 11-H ) :   0.9155 B(  3-C , 12-H ) :   0.9333 B(  4-C ,  5-N ) :   1.8294
B(  4-C ,  6-O ) :   0.1030 B(  4-C , 13-H ) :   0.9490 B(  5-N ,  6-O ) :   0.9951
B(  6-O , 14-H ) :   0.9753

FINAL SINGLE POINT ENERGY      -341.217205291084

DIPOLE MOMENT
-------------
                                X             Y             Z
Electronic contribution:      5.43989       0.89808      -1.35446
Nuclear contribution   :     -5.25404      -1.46454       1.57762
                        -----------------------------------------
Total Dipole Moment    :      0.18585      -0.56646       0.22316
                        -----------------------------------------
Magnitude (a.u.)       :      0.63657
Magnitude (Debye)      :      1.61803

                             ****ORCA TERMINATED NORMALLY****
TOTAL RUN TIME: 0 days 0 hours 0 minutes 6 seconds 556 msec
