                         Program Version 3.0.3 - RELEASE   -
|  1> ! RI PBE def2-SVP def2-SVP/J NBO PAL2
|  2> % maxcore 2000
|  3> % output
|  4>     # printlevel mini
|  5>     print[ P_Basis ] 0
|  6>     print[ P_SCFInfo ] 1
|  7>     print[ P_SCFIterInfo ] 1
|  8>     print[ P_OrbEn ] 0
|  9>     print[ P_Cartesian ] 0
| 10> end
| 11> *xyz 0 1
| 12>  N        1.7885350000     0.5482140000     0.2388410000
| 13>  C        3.0604840000    -0.0852460000    -0.0521390000
| 14>  C        2.9334990000    -1.2149090000    -1.0317270000
| 15>  C        1.7975510000    -1.5275570000    -1.6479800000
| 16>  C        4.1821220000    -2.0246850000    -1.2018610000
| 17>  N        4.3422980000    -2.6291570000    -2.4069260000
| 18>  O        4.9975190000    -2.1390280000    -0.3067320000
| 19>  H        1.9366690000     1.4044840000     0.7558040000
| 20>  H        1.2208250000    -0.0550680000     0.8222830000
| 21>  H        3.5910870000    -0.4812370000     0.8240270000
| 22>  H        3.7308920000     0.6682100000    -0.4825630000
| 23>  H        0.9084860000    -0.9295240000    -1.4865010000
| 24>  H        1.7183210000    -2.3875330000    -2.3028510000
| 25>  H        3.7836760000    -2.3639720000    -3.1965280000
| 26>  H        5.1990260000    -3.1318920000    -2.5621350000
| 27> *
| 28>
| 29>                          ****END OF INPUT****
 Total Charge           Charge          ....    0
 Multiplicity           Mult            ....    1
 Number of Electrons    NEL             ....   54
 Basis Dimension        Dim             ....  138

MULLIKEN ATOMIC CHARGES
-----------------------
   0 N :   -0.203841
   1 C :    0.135596
   2 C :   -0.198572
   3 C :   -0.022677
   4 C :    0.047892
   5 N :   -0.051856
   6 O :   -0.204828
   7 H :    0.094097
   8 H :    0.096310
   9 H :    0.028797
  10 H :    0.022700
  11 H :    0.020377
  12 H :    0.009724
  13 H :    0.111294
  14 H :    0.114987
Sum of atomic charges:    0.0000000

LOEWDIN ATOMIC CHARGES
----------------------
   0 N :   -0.100043
   1 C :    0.011672
   2 C :   -0.068562
   3 C :   -0.052955
   4 C :    0.028006
   5 N :    0.016102
   6 O :   -0.188164
   7 H :    0.056872
   8 H :    0.054950
   9 H :    0.020559
  10 H :    0.037612
  11 H :    0.022908
  12 H :    0.017811
  13 H :    0.070374
  14 H :    0.072856

  Mayer bond orders larger than 0.1
B(  0-N ,  1-C ) :   1.1263 B(  0-N ,  7-H ) :   0.9629 B(  0-N ,  8-H ) :   0.9652
B(  1-C ,  2-C ) :   1.0185 B(  1-C ,  9-H ) :   0.9098 B(  1-C , 10-H ) :   0.9094
B(  2-C ,  3-C ) :   1.9652 B(  2-C ,  4-C ) :   0.9127 B(  3-C , 11-H ) :   0.9089
B(  3-C , 12-H ) :   0.9331 B(  4-C ,  5-N ) :   1.2623 B(  4-C ,  6-O ) :   2.0816
B(  5-N , 13-H ) :   0.9393 B(  5-N , 14-H ) :   0.9367

FINAL SINGLE POINT ENERGY      -341.295134182223

DIPOLE MOMENT
-------------
                                X             Y             Z
Electronic contribution:      3.74196      -2.70603      -0.24617
Nuclear contribution   :     -4.13570       2.83278      -0.38740
                        -----------------------------------------
Total Dipole Moment    :     -0.39374       0.12675      -0.63356
                        -----------------------------------------
Magnitude (a.u.)       :      0.75664
Magnitude (Debye)      :      1.92322

                             ****ORCA TERMINATED NORMALLY****
TOTAL RUN TIME: 0 days 0 hours 0 minutes 6 seconds 947 msec
