                         Program Version 3.0.3 - RELEASE   -
|  1> ! RI PBE def2-SVP def2-SVP/J NBO PAL2
|  2> % maxcore 2000
|  3> % output
|  4>     # printlevel mini
|  5>     print[ P_Basis ] 0
|  6>     print[ P_SCFInfo ] 1
|  7>     print[ P_SCFIterInfo ] 1
|  8>     print[ P_OrbEn ] 0
|  9>     print[ P_Cartesian ] 0
| 10> end
| 11> *xyz 0 1
| 12>  N        1.3019620000     0.6122490000     0.1638000000
| 13>  C        1.9523150000    -0.6718210000     0.3980390000
| 14>  C        2.9292090000    -0.5958400000     1.5385370000
| 15>  C        2.4941060000    -0.3805600000     2.9143160000
| 16>  C        1.2427510000    -0.0909880000     3.2649000000
| 17>  N        4.1495110000    -0.7714320000     1.1885860000
| 18>  O        5.0405400000    -0.7066820000     2.2416040000
| 19>  H        0.6441520000     0.5338390000    -0.6017130000
| 20>  H        1.9914150000     1.3036400000    -0.1059830000
| 21>  H        2.5023170000    -1.0642910000    -0.4661700000
| 22>  H        1.1752170000    -1.4003150000     0.6531240000
| 23>  H        3.2621800000    -0.4776910000     3.6722270000
| 24>  H        0.4653160000     0.0599500000     2.5256630000
| 25>  H        0.9769140000     0.0350840000     4.3081100000
| 26>  H        5.8826870000    -0.8800430000     1.8131900000
| 27> *
| 28>
| 29>                          ****END OF INPUT****
 Total Charge           Charge          ....    0
 Multiplicity           Mult            ....    1
 Number of Electrons    NEL             ....   54
 Basis Dimension        Dim             ....  138

MULLIKEN ATOMIC CHARGES
-----------------------
   0 N :   -0.216700
   1 C :    0.151542
   2 C :   -0.173883
   3 C :    0.015021
   4 C :   -0.002704
   5 N :   -0.028696
   6 O :   -0.169510
   7 H :    0.092064
   8 H :    0.092298
   9 H :   -0.004369
  10 H :    0.014955
  11 H :    0.000796
  12 H :    0.032644
  13 H :    0.023032
  14 H :    0.173511
Sum of atomic charges:   -0.0000000

LOEWDIN ATOMIC CHARGES
----------------------
   0 N :   -0.106711
   1 C :    0.008099
   2 C :   -0.065128
   3 C :   -0.048151
   4 C :   -0.020129
   5 N :   -0.018416
   6 O :   -0.046540
   7 H :    0.053991
   8 H :    0.054180
   9 H :    0.007504
  10 H :    0.027527
  11 H :    0.029166
  12 H :    0.024739
  13 H :    0.024756
  14 H :    0.075112

  Mayer bond orders larger than 0.1
B(  0-N ,  1-C ) :   1.0626 B(  0-N ,  7-H ) :   0.9660 B(  0-N ,  8-H ) :   0.9662
B(  1-C ,  2-C ) :   1.0778 B(  1-C ,  9-H ) :   0.9054 B(  1-C , 10-H ) :   0.9078
B(  2-C ,  3-C ) :   1.0816 B(  2-C ,  5-N ) :   1.8393 B(  3-C ,  4-C ) :   1.8957
B(  3-C , 11-H ) :   0.9479 B(  4-C ,  5-N ) :   0.1004 B(  4-C , 12-H ) :   0.9254
B(  4-C , 13-H ) :   0.9413 B(  5-N ,  6-O ) :   1.0114 B(  6-O , 14-H ) :   0.9743

FINAL SINGLE POINT ENERGY      -341.215139629143

DIPOLE MOMENT
-------------
                                X             Y             Z
Electronic contribution:      5.04166      -0.95780       0.82178
Nuclear contribution   :     -4.91793       0.94850      -1.24002
                        -----------------------------------------
Total Dipole Moment    :      0.12374      -0.00930      -0.41824
                        -----------------------------------------
Magnitude (a.u.)       :      0.43626
Magnitude (Debye)      :      1.10888

                             ****ORCA TERMINATED NORMALLY****
TOTAL RUN TIME: 0 days 0 hours 0 minutes 6 seconds 881 msec
