                         Program Version 3.0.3 - RELEASE   -
|  1> ! RI PBE def2-SVP def2-SVP/J NBO PAL2
|  2> % maxcore 2000
|  3> % output
|  4>     # printlevel mini
|  5>     print[ P_Basis ] 0
|  6>     print[ P_SCFInfo ] 1
|  7>     print[ P_SCFIterInfo ] 1
|  8>     print[ P_OrbEn ] 0
|  9>     print[ P_Cartesian ] 0
| 10> end
| 11> *xyz 0 1
| 12>  N        1.0076760000     0.5322700000     0.1365120000
| 13>  C        2.3197580000    -0.0388950000    -0.1375890000
| 14>  C        2.7542620000    -0.9170760000     0.9366130000
| 15>  C        3.1482230000    -1.6220370000     1.8304320000
| 16>  C        3.5226670000    -2.4729410000     2.8961980000
| 17>  N        4.7520050000    -2.7207140000     3.1283680000
| 18>  O        4.8888200000    -3.5717040000     4.1990510000
| 19>  H        0.7445400000     1.1607980000    -0.6123040000
| 20>  H        1.0359470000     1.0741850000     0.9913210000
| 21>  H        3.1145320000     0.7058060000    -0.3035610000
| 22>  H        2.2516060000    -0.6267660000    -1.0599740000
| 23>  H        2.7408570000    -2.9164850000     3.5149780000
| 24>  H        5.8413280000    -3.6818410000     4.2710440000
| 25> *
| 26>
| 27>                          ****END OF INPUT****
 Total Charge           Charge          ....    0
 Multiplicity           Mult            ....    1
 Number of Electrons    NEL             ....   52
 Basis Dimension        Dim             ....  128

MULLIKEN ATOMIC CHARGES
-----------------------
   0 N :   -0.217844
   1 C :    0.158246
   2 C :   -0.113685
   3 C :   -0.008851
   4 C :   -0.060206
   5 N :   -0.047973
   6 O :   -0.162651
   7 H :    0.091989
   8 H :    0.097214
   9 H :    0.026247
  10 H :    0.032069
  11 H :    0.028950
  12 H :    0.176494
Sum of atomic charges:    0.0000000

LOEWDIN ATOMIC CHARGES
----------------------
   0 N :   -0.104648
   1 C :    0.001566
   2 C :   -0.027478
   3 C :   -0.060419
   4 C :   -0.052108
   5 N :   -0.001072
   6 O :   -0.038181
   7 H :    0.054722
   8 H :    0.055043
   9 H :    0.026391
  10 H :    0.046477
  11 H :    0.020887
  12 H :    0.078820

  Mayer bond orders larger than 0.1
B(  0-N ,  1-C ) :   1.0815 B(  0-N ,  7-H ) :   0.9623 B(  0-N ,  8-H ) :   0.9690
B(  1-C ,  2-C ) :   1.0663 B(  1-C ,  9-H ) :   0.9003 B(  1-C , 10-H ) :   0.8864
B(  2-C ,  3-C ) :   2.5175 B(  3-C ,  4-C ) :   0.9961 B(  4-C ,  5-N ) :   1.8070
B(  4-C ,  6-O ) :   0.1079 B(  4-C , 11-H ) :   0.9440 B(  5-N ,  6-O ) :   1.0119
B(  6-O , 12-H ) :   0.9735

FINAL SINGLE POINT ENERGY      -339.969372188692

DIPOLE MOMENT
-------------
                                X             Y             Z
Electronic contribution:      3.55652      -4.19621       4.11214
Nuclear contribution   :     -3.34344       4.72223      -4.26798
                        -----------------------------------------
Total Dipole Moment    :      0.21309       0.52602      -0.15584
                        -----------------------------------------
Magnitude (a.u.)       :      0.58855
Magnitude (Debye)      :      1.49597

                             ****ORCA TERMINATED NORMALLY****
TOTAL RUN TIME: 0 days 0 hours 0 minutes 6 seconds 7 msec
