                         Program Version 3.0.3 - RELEASE   -
|  1> ! RI PBE def2-SVP def2-SVP/J NBO PAL2
|  2> % maxcore 2000
|  3> % output
|  4>     # printlevel mini
|  5>     print[ P_Basis ] 0
|  6>     print[ P_SCFInfo ] 1
|  7>     print[ P_SCFIterInfo ] 1
|  8>     print[ P_OrbEn ] 0
|  9>     print[ P_Cartesian ] 0
| 10> end
| 11> *xyz 0 1
| 12>  N        1.2108030000    -0.5781000000     0.2408960000
| 13>  C        2.2698120000     0.2651610000    -0.2937680000
| 14>  C        2.7224040000     1.2344580000     0.6909740000
| 15>  C        3.0545540000     2.0605720000     1.5002770000
| 16>  C        3.4040940000     3.0496090000     2.5065160000
| 17>  N        4.6891770000     3.4770000000     2.4383700000
| 18>  O        2.6061700000     3.4542750000     3.3241710000
| 19>  H        0.8512950000    -1.1834910000    -0.4863930000
| 20>  H        0.4433150000    -0.0074230000     0.5729830000
| 21>  H        1.9927420000     0.8286530000    -1.1998480000
| 22>  H        3.1145350000    -0.3734240000    -0.5742530000
| 23>  H        5.3366100000     3.0846820000     1.7801900000
| 24>  H        5.0074890000     4.1402280000     3.1233960000
| 25> *
| 26>
| 27>                          ****END OF INPUT****
 Total Charge           Charge          ....    0
 Multiplicity           Mult            ....    1
 Number of Electrons    NEL             ....   52
 Basis Dimension        Dim             ....  128

MULLIKEN ATOMIC CHARGES
-----------------------
   0 N :   -0.215008
   1 C :    0.166994
   2 C :   -0.151036
   3 C :   -0.080038
   4 C :    0.028918
   5 N :   -0.056634
   6 O :   -0.179963
   7 H :    0.092374
   8 H :    0.102330
   9 H :    0.026220
  10 H :    0.029563
  11 H :    0.114642
  12 H :    0.121639
Sum of atomic charges:   -0.0000000

LOEWDIN ATOMIC CHARGES
----------------------
   0 N :   -0.102586
   1 C :    0.001729
   2 C :   -0.019299
   3 C :   -0.083188
   4 C :    0.010174
   5 N :    0.023123
   6 O :   -0.168263
   7 H :    0.055422
   8 H :    0.058192
   9 H :    0.028054
  10 H :    0.045078
  11 H :    0.076063
  12 H :    0.075501

  Mayer bond orders larger than 0.1
B(  0-N ,  1-C ) :   1.0795 B(  0-N ,  7-H ) :   0.9625 B(  0-N ,  8-H ) :   0.9669
B(  1-C ,  2-C ) :   1.0715 B(  1-C ,  9-H ) :   0.8964 B(  1-C , 10-H ) :   0.8876
B(  2-C ,  3-C ) :   2.6898 B(  3-C ,  4-C ) :   0.8365 B(  4-C ,  5-N ) :   1.2666
B(  4-C ,  6-O ) :   2.1197 B(  5-N ,  6-O ) :   0.1024 B(  5-N , 11-H ) :   0.9407
B(  5-N , 12-H ) :   0.9366

FINAL SINGLE POINT ENERGY      -340.047842154207

DIPOLE MOMENT
-------------
                                X             Y             Z
Electronic contribution:      1.10884       4.07714       4.07628
Nuclear contribution   :     -0.28588      -4.32410      -5.38341
                        -----------------------------------------
Total Dipole Moment    :      0.82297      -0.24696      -1.30713
                        -----------------------------------------
Magnitude (a.u.)       :      1.56424
Magnitude (Debye)      :      3.97599

                             ****ORCA TERMINATED NORMALLY****
TOTAL RUN TIME: 0 days 0 hours 0 minutes 5 seconds 748 msec
