                         Program Version 3.0.3 - RELEASE   -
|  1> ! RI PBE def2-SVP def2-SVP/J NBO PAL2
|  2> % maxcore 2000
|  3> % output
|  4>     # printlevel mini
|  5>     print[ P_Basis ] 0
|  6>     print[ P_SCFInfo ] 1
|  7>     print[ P_SCFIterInfo ] 1
|  8>     print[ P_OrbEn ] 0
|  9>     print[ P_Cartesian ] 0
| 10> end
| 11> *xyz 0 1
| 12>  N        2.3305150000     1.0301420000    -1.3334020000
| 13>  C        2.2205400000     0.4375840000    -0.0086260000
| 14>  C        3.0430170000    -0.8377520000     0.0941880000
| 15>  C        4.5281180000    -0.6731830000    -0.2375020000
| 16>  C        5.2311500000     0.2930150000     0.6491310000
| 17>  N        6.1096320000    -0.1164900000     1.4635910000
| 18>  O        6.6509110000     0.9246770000     2.2044840000
| 19>  H        1.8481090000     1.9184990000    -1.3728820000
| 20>  H        1.9004470000     0.4299630000    -2.0274660000
| 21>  H        1.1858030000     0.2061940000     0.2875530000
| 22>  H        2.5887580000     1.1707180000     0.7158130000
| 23>  H        2.6207930000    -1.5892460000    -0.5838000000
| 24>  H        2.9374680000    -1.2416760000     1.1059990000
| 25>  H        4.6189740000    -0.3217520000    -1.2698000000
| 26>  H        5.0304170000    -1.6399220000    -0.1610100000
| 27>  H        4.9913260000     1.3567560000     0.5928890000
| 28>  H        7.2980020000     0.4798720000     2.7582180000
| 29> *
| 30>
| 31>                          ****END OF INPUT****
 Total Charge           Charge          ....    0
 Multiplicity           Mult            ....    1
 Number of Electrons    NEL             ....   56
 Basis Dimension        Dim             ....  148

MULLIKEN ATOMIC CHARGES
-----------------------
   0 N :   -0.217463
   1 C :    0.059817
   2 C :   -0.050407
   3 C :    0.097322
   4 C :   -0.081926
   5 N :   -0.045879
   6 O :   -0.182925
   7 H :    0.091332
   8 H :    0.088197
   9 H :   -0.003308
  10 H :    0.013162
  11 H :    0.007739
  12 H :    0.015915
  13 H :    0.022063
  14 H :    0.010986
  15 H :    0.008209
  16 H :    0.167166
Sum of atomic charges:   -0.0000000

LOEWDIN ATOMIC CHARGES
----------------------
   0 N :   -0.110918
   1 C :    0.000994
   2 C :   -0.045700
   3 C :   -0.047668
   4 C :   -0.032370
   5 N :   -0.020061
   6 O :   -0.061947
   7 H :    0.054171
   8 H :    0.050612
   9 H :    0.001659
  10 H :    0.019365
  11 H :    0.022649
  12 H :    0.028073
  13 H :    0.034520
  14 H :    0.031471
  15 H :    0.004891
  16 H :    0.070260

  Mayer bond orders larger than 0.1
B(  0-N ,  1-C ) :   1.0881 B(  0-N ,  7-H ) :   0.9668 B(  0-N ,  8-H ) :   0.9695
B(  1-C ,  2-C ) :   1.1064 B(  1-C ,  9-H ) :   0.9278 B(  1-C , 10-H ) :   0.9294
B(  2-C ,  3-C ) :   1.0777 B(  2-C , 11-H ) :   0.9296 B(  2-C , 12-H ) :   0.9292
B(  3-C ,  4-C ) :   1.0488 B(  3-C , 13-H ) :   0.9016 B(  3-C , 14-H ) :   0.9202
B(  4-C ,  5-N ) :   1.9077 B(  4-C ,  6-O ) :   0.1092 B(  4-C , 15-H ) :   0.9398
B(  5-N ,  6-O ) :   0.9855 B(  6-O , 16-H ) :   0.9779

FINAL SINGLE POINT ENERGY      -342.428192831123

DIPOLE MOMENT
-------------
                                X             Y             Z
Electronic contribution:      6.91734       1.01067       3.77908
Nuclear contribution   :     -7.56130      -1.00898      -3.89480
                        -----------------------------------------
Total Dipole Moment    :     -0.64396       0.00169      -0.11572
                        -----------------------------------------
Magnitude (a.u.)       :      0.65427
Magnitude (Debye)      :      1.66303

                             ****ORCA TERMINATED NORMALLY****
TOTAL RUN TIME: 0 days 0 hours 0 minutes 7 seconds 535 msec
