                         Program Version 3.0.3 - RELEASE   -
|  1> ! RI PBE def2-SVP def2-SVP/J NBO PAL2
|  2> % maxcore 2000
|  3> % output
|  4>     # printlevel mini
|  5>     print[ P_Basis ] 0
|  6>     print[ P_SCFInfo ] 1
|  7>     print[ P_SCFIterInfo ] 1
|  8>     print[ P_OrbEn ] 0
|  9>     print[ P_Cartesian ] 0
| 10> end
| 11> *xyz 0 1
| 12>  N        2.6274530000    -1.1188960000     0.8417140000
| 13>  C        2.1245070000    -0.1367140000    -0.1164960000
| 14>  C        2.8716570000     1.1848800000    -0.0155930000
| 15>  C        4.3979730000     1.0727340000    -0.0165380000
| 16>  C        4.9361910000     0.3458920000    -1.2337010000
| 17>  N        5.0076440000    -1.0009270000    -1.0880090000
| 18>  O        5.2758660000     0.9255510000    -2.2458600000
| 19>  H        2.0680370000    -1.9624420000     0.8109150000
| 20>  H        2.5588230000    -0.7601970000     1.7876030000
| 21>  H        1.0497350000     0.0642260000    -0.0048710000
| 22>  H        2.2627990000    -0.5557120000    -1.1178620000
| 23>  H        2.5694140000     1.7028230000     0.9022090000
| 24>  H        2.5526750000     1.8204200000    -0.8464830000
| 25>  H        4.7316880000     0.5629580000     0.8901730000
| 26>  H        4.8315000000     2.0732750000    -0.0254010000
| 27>  H        4.5043070000    -1.4309750000    -0.3217590000
| 28>  H        5.2437500000    -1.5450160000    -1.9006300000
| 29> *
| 30>
| 31>                          ****END OF INPUT****
 Total Charge           Charge          ....    0
 Multiplicity           Mult            ....    1
 Number of Electrons    NEL             ....   56
 Basis Dimension        Dim             ....  148

MULLIKEN ATOMIC CHARGES
-----------------------
   0 N :   -0.220773
   1 C :    0.045420
   2 C :   -0.051484
   3 C :    0.049516
   4 C :   -0.060844
   5 N :   -0.057201
   6 O :   -0.208757
   7 H :    0.100651
   8 H :    0.097128
   9 H :    0.010621
  10 H :    0.020828
  11 H :    0.016179
  12 H :    0.030011
  13 H :    0.005048
  14 H :    0.018823
  15 H :    0.099279
  16 H :    0.105556
Sum of atomic charges:   -0.0000000

LOEWDIN ATOMIC CHARGES
----------------------
   0 N :   -0.096997
   1 C :   -0.000781
   2 C :   -0.040831
   3 C :   -0.064920
   4 C :    0.020188
   5 N :    0.007094
   6 O :   -0.202325
   7 H :    0.058512
   8 H :    0.055452
   9 H :    0.009022
  10 H :    0.018749
  11 H :    0.023687
  12 H :    0.035749
  13 H :    0.023681
  14 H :    0.038285
  15 H :    0.049854
  16 H :    0.065580

  Mayer bond orders larger than 0.1
B(  0-N ,  1-C ) :   1.0620 B(  0-N ,  7-H ) :   0.9622 B(  0-N ,  8-H ) :   0.9629
B(  0-N , 15-H ) :   0.1132 B(  1-C ,  2-C ) :   1.1041 B(  1-C ,  9-H ) :   0.9315
B(  1-C , 10-H ) :   0.9268 B(  2-C ,  3-C ) :   1.0964 B(  2-C , 11-H ) :   0.9347
B(  2-C , 12-H ) :   0.9306 B(  3-C ,  4-C ) :   0.9714 B(  3-C , 13-H ) :   0.9127
B(  3-C , 14-H ) :   0.9135 B(  4-C ,  5-N ) :   1.2522 B(  4-C ,  6-O ) :   2.1304
B(  5-N , 15-H ) :   0.9028 B(  5-N , 16-H ) :   0.9399

FINAL SINGLE POINT ENERGY      -342.518874151321

DIPOLE MOMENT
-------------
                                X             Y             Z
Electronic contribution:      4.81030       0.42114      -4.06500
Nuclear contribution   :     -5.99293      -1.38193       5.26901
                        -----------------------------------------
Total Dipole Moment    :     -1.18263      -0.96079       1.20401
                        -----------------------------------------
Magnitude (a.u.)       :      1.94200
Magnitude (Debye)      :      4.93617

                             ****ORCA TERMINATED NORMALLY****
TOTAL RUN TIME: 0 days 0 hours 0 minutes 8 seconds 66 msec
