                         Program Version 3.0.3 - RELEASE   -
|  1> ! RI PBE def2-SVP def2-SVP/J NBO PAL2
|  2> % maxcore 2000
|  3> % output
|  4>     # printlevel mini
|  5>     print[ P_Basis ] 0
|  6>     print[ P_SCFInfo ] 1
|  7>     print[ P_SCFIterInfo ] 1
|  8>     print[ P_OrbEn ] 0
|  9>     print[ P_Cartesian ] 0
| 10> end
| 11> *xyz 0 1
| 12>  N        0.9411500000     0.2622380000    -0.3572190000
| 13>  C        2.3247420000     0.0237330000    -0.0289110000
| 14>  C        2.6456100000    -0.4483490000     1.3738480000
| 15>  C        1.7463810000    -0.7070300000     2.3097450000
| 16>  C        2.9651810000    -0.9737330000    -0.9788350000
| 17>  O        2.0910270000    -1.8698060000    -1.4558020000
| 18>  O        4.1365690000    -0.9997000000    -1.2367680000
| 19>  H        0.5320840000     0.9137400000     0.3002980000
| 20>  H        0.4059760000    -0.5963330000    -0.3262860000
| 21>  H        2.8862340000     0.9500140000    -0.1945480000
| 22>  H        3.7058650000    -0.5657830000     1.5839860000
| 23>  H        0.6822070000    -0.6014620000     2.1265550000
| 24>  H        2.0447650000    -1.0333410000     3.2986090000
| 25>  H        2.5952090000    -2.4807870000    -2.0112730000
| 26> *
| 27>
| 28>                          ****END OF INPUT****
 Total Charge           Charge          ....    0
 Multiplicity           Mult            ....    1
 Number of Electrons    NEL             ....   54
 Basis Dimension        Dim             ....  133

MULLIKEN ATOMIC CHARGES
-----------------------
   0 N :   -0.156236
   1 C :    0.028897
   2 C :   -0.057092
   3 C :   -0.030265
   4 C :    0.075873
   5 O :   -0.131995
   6 O :   -0.179300
   7 H :    0.095779
   8 H :    0.102567
   9 H :    0.039628
  10 H :    0.014154
  11 H :   -0.002450
  12 H :    0.031138
  13 H :    0.169302
Sum of atomic charges:    0.0000000

LOEWDIN ATOMIC CHARGES
----------------------
   0 N :   -0.078338
   1 C :   -0.026261
   2 C :   -0.035618
   3 C :   -0.066458
   4 C :    0.046411
   5 O :   -0.004549
   6 O :   -0.151757
   7 H :    0.054977
   8 H :    0.051029
   9 H :    0.048543
  10 H :    0.032125
  11 H :    0.011436
  12 H :    0.029891
  13 H :    0.088567

  Mayer bond orders larger than 0.1
B(  0-N ,  1-C ) :   1.1266 B(  0-N ,  7-H ) :   0.9582 B(  0-N ,  8-H ) :   0.9574
B(  1-C ,  2-C ) :   0.9645 B(  1-C ,  4-C ) :   0.8997 B(  1-C ,  9-H ) :   0.8888
B(  2-C ,  3-C ) :   2.0116 B(  2-C , 10-H ) :   0.9441 B(  3-C , 11-H ) :   0.9306
B(  3-C , 12-H ) :   0.9401 B(  4-C ,  5-O ) :   1.2695 B(  4-C ,  6-O ) :   2.1136
B(  5-O , 13-H ) :   0.9461

FINAL SINGLE POINT ENERGY      -361.132453143422

DIPOLE MOMENT
-------------
                                X             Y             Z
Electronic contribution:      3.05584      -1.67419      -4.79601
Nuclear contribution   :     -3.65203       1.39025       5.16680
                        -----------------------------------------
Total Dipole Moment    :     -0.59620      -0.28394       0.37079
                        -----------------------------------------
Magnitude (a.u.)       :      0.75733
Magnitude (Debye)      :      1.92499

                             ****ORCA TERMINATED NORMALLY****
TOTAL RUN TIME: 0 days 0 hours 0 minutes 6 seconds 639 msec
