                         Program Version 3.0.3 - RELEASE   -
|  1> ! RI PBE def2-SVP def2-SVP/J NBO PAL2
|  2> % maxcore 2000
|  3> % output
|  4>     # printlevel mini
|  5>     print[ P_Basis ] 0
|  6>     print[ P_SCFInfo ] 1
|  7>     print[ P_SCFIterInfo ] 1
|  8>     print[ P_OrbEn ] 0
|  9>     print[ P_Cartesian ] 0
| 10> end
| 11> *xyz 0 1
| 12>  N        0.9344330000    -0.1221410000    -0.0144320000
| 13>  C        2.3812760000    -0.0814330000    -0.0545670000
| 14>  C        2.9864510000    -0.5801980000    -1.2944990000
| 15>  C        3.4410270000    -1.0063090000    -2.3204460000
| 16>  C        2.8295220000     1.3623500000     0.1444510000
| 17>  O        4.0677310000     1.4316820000     0.6388370000
| 18>  O        2.1604850000     2.3176110000    -0.1262150000
| 19>  H        0.6001110000    -0.9855100000    -0.4216660000
| 20>  H        0.5692400000     0.6499770000    -0.5611880000
| 21>  H        2.7903430000    -0.6633310000     0.7789140000
| 22>  H        3.8456670000    -1.3828060000    -3.2303220000
| 23>  H        4.3006140000     2.3696070000     0.6919330000
| 24> *
| 25>
| 26>                          ****END OF INPUT****
 Total Charge           Charge          ....    0
 Multiplicity           Mult            ....    1
 Number of Electrons    NEL             ....   52
 Basis Dimension        Dim             ....  123

MULLIKEN ATOMIC CHARGES
-----------------------
   0 N :   -0.146013
   1 C :    0.046755
   2 C :    0.380039
   3 C :   -0.501905
   4 C :    0.084223
   5 O :   -0.122331
   6 O :   -0.169376
   7 H :    0.096185
   8 H :    0.103938
   9 H :    0.051912
  10 H :    0.003612
  11 H :    0.172961
Sum of atomic charges:    0.0000000

LOEWDIN ATOMIC CHARGES
----------------------
   0 N :   -0.073830
   1 C :   -0.031292
   2 C :   -0.038203
   3 C :   -0.071132
   4 C :    0.050657
   5 O :    0.003594
   6 O :   -0.136160
   7 H :    0.059435
   8 H :    0.055319
   9 H :    0.051846
  10 H :    0.037231
  11 H :    0.092536

  Mayer bond orders larger than 0.1
B(  0-N ,  1-C ) :   1.1389 B(  0-N ,  7-H ) :   0.9610 B(  0-N ,  8-H ) :   0.9474
B(  1-C ,  2-C ) :   0.9400 B(  1-C ,  4-C ) :   0.8879 B(  1-C ,  9-H ) :   0.8770
B(  2-C ,  3-C ) :   2.3570 B(  2-C , 10-H ) :  -0.1123 B(  3-C , 10-H ) :   1.1018
B(  4-C ,  5-O ) :   1.2770 B(  4-C ,  6-O ) :   2.1215 B(  5-O , 11-H ) :   0.9457

FINAL SINGLE POINT ENERGY      -359.886671217164

DIPOLE MOMENT
-------------
                                X             Y             Z
Electronic contribution:      1.62021       2.33592       0.60096
Nuclear contribution   :     -1.17099      -2.56024      -0.79562
                        -----------------------------------------
Total Dipole Moment    :      0.44922      -0.22431      -0.19466
                        -----------------------------------------
Magnitude (a.u.)       :      0.53852
Magnitude (Debye)      :      1.36881

                             ****ORCA TERMINATED NORMALLY****
TOTAL RUN TIME: 0 days 0 hours 0 minutes 5 seconds 710 msec
