                         Program Version 3.0.3 - RELEASE   -
|  1> ! RI PBE def2-SVP def2-SVP/J NBO PAL2
|  2> % maxcore 2000
|  3> % output
|  4>     # printlevel mini
|  5>     print[ P_Basis ] 0
|  6>     print[ P_SCFInfo ] 1
|  7>     print[ P_SCFIterInfo ] 1
|  8>     print[ P_OrbEn ] 0
|  9>     print[ P_Cartesian ] 0
| 10> end
| 11> *xyz 0 1
| 12>  N        3.8412270000    -0.2407800000     1.0389770000
| 13>  C        2.6381500000    -0.0531970000     0.2588800000
| 14>  C        2.9036970000     0.3268430000    -1.1558030000
| 15>  C        4.1090700000     0.4105370000    -1.7134670000
| 16>  C        4.3383820000     0.7999560000    -3.1094650000
| 17>  O        3.2111120000     1.0794450000    -3.7965370000
| 18>  O        5.4280010000     0.8725350000    -3.6196440000
| 19>  H        3.6228670000    -0.6171080000     1.9512500000
| 20>  H        4.3191060000     0.6407360000     1.1802800000
| 21>  H        1.9372850000     0.6924050000     0.6733610000
| 22>  H        2.0777710000    -0.9971410000     0.2500660000
| 23>  H        2.0276130000     0.5575550000    -1.7554890000
| 24>  H        5.0064800000     0.1729410000    -1.1561120000
| 25>  H        3.4990470000     1.3160630000    -4.6882090000
| 26> *
| 27>
| 28>                          ****END OF INPUT****
 Total Charge           Charge          ....    0
 Multiplicity           Mult            ....    1
 Number of Electrons    NEL             ....   54
 Basis Dimension        Dim             ....  133

MULLIKEN ATOMIC CHARGES
-----------------------
   0 N :   -0.199859
   1 C :    0.127819
   2 C :   -0.083747
   3 C :   -0.058685
   4 C :    0.107674
   5 O :   -0.148500
   6 O :   -0.185351
   7 H :    0.095661
   8 H :    0.100678
   9 H :    0.015584
  10 H :    0.034981
  11 H :    0.019988
  12 H :    0.010297
  13 H :    0.163459
Sum of atomic charges:    0.0000000

LOEWDIN ATOMIC CHARGES
----------------------
   0 N :   -0.099502
   1 C :    0.003064
   2 C :    0.004970
   3 C :   -0.080255
   4 C :    0.032035
   5 O :   -0.026484
   6 O :   -0.159835
   7 H :    0.058022
   8 H :    0.056465
   9 H :    0.018161
  10 H :    0.042947
  11 H :    0.032151
  12 H :    0.035326
  13 H :    0.082936

  Mayer bond orders larger than 0.1
B(  0-N ,  1-C ) :   1.1364 B(  0-N ,  7-H ) :   0.9620 B(  0-N ,  8-H ) :   0.9622
B(  1-C ,  2-C ) :   1.0359 B(  1-C ,  9-H ) :   0.9073 B(  1-C , 10-H ) :   0.9047
B(  2-C ,  3-C ) :   1.7932 B(  2-C , 11-H ) :   0.9472 B(  3-C ,  4-C ) :   1.0092
B(  3-C , 12-H ) :   0.9529 B(  4-C ,  5-O ) :   1.2456 B(  4-C ,  6-O ) :   2.0818
B(  5-O , 13-H ) :   0.9480

FINAL SINGLE POINT ENERGY      -361.141234622585

DIPOLE MOMENT
-------------
                                X             Y             Z
Electronic contribution:      2.69649       1.58467      -7.20419
Nuclear contribution   :     -3.74336      -1.41554       8.08778
                        -----------------------------------------
Total Dipole Moment    :     -1.04687       0.16912       0.88359
                        -----------------------------------------
Magnitude (a.u.)       :      1.38032
Magnitude (Debye)      :      3.50849

                             ****ORCA TERMINATED NORMALLY****
TOTAL RUN TIME: 0 days 0 hours 0 minutes 6 seconds 834 msec
