                         Program Version 3.0.3 - RELEASE   -
|  1> ! RI PBE def2-SVP def2-SVP/J NBO PAL2
|  2> % maxcore 2000
|  3> % output
|  4>     # printlevel mini
|  5>     print[ P_Basis ] 0
|  6>     print[ P_SCFInfo ] 1
|  7>     print[ P_SCFIterInfo ] 1
|  8>     print[ P_OrbEn ] 0
|  9>     print[ P_Cartesian ] 0
| 10> end
| 11> *xyz 0 1
| 12>  N        1.7487990000    -0.3054830000     0.6195410000
| 13>  C        3.1146860000    -0.1685000000     0.1534240000
| 14>  C        3.4233780000    -1.1004710000    -0.9832270000
| 15>  C        2.5210360000    -1.8787580000    -1.5737620000
| 16>  C        4.8382390000    -1.0843650000    -1.4212750000
| 17>  O        5.1164480000    -1.9324380000    -2.4268720000
| 18>  O        5.6820120000    -0.3734760000    -0.9344890000
| 19>  H        1.5123460000     0.4579270000     1.2385350000
| 20>  H        1.6365240000    -1.1623820000     1.1480330000
| 21>  H        3.8782790000    -0.3187900000     0.9298260000
| 22>  H        3.2629430000     0.8581110000    -0.1978200000
| 23>  H        1.4873700000    -1.8488770000    -1.2508020000
| 24>  H        2.7951310000    -2.5344920000    -2.3894470000
| 25>  H        6.0568100000    -1.8166060000    -2.6188550000
| 26> *
| 27>
| 28>                          ****END OF INPUT****
 Total Charge           Charge          ....    0
 Multiplicity           Mult            ....    1
 Number of Electrons    NEL             ....   54
 Basis Dimension        Dim             ....  133

MULLIKEN ATOMIC CHARGES
-----------------------
   0 N :   -0.204603
   1 C :    0.145038
   2 C :   -0.228400
   3 C :    0.022242
   4 C :    0.116338
   5 O :   -0.132762
   6 O :   -0.180619
   7 H :    0.095558
   8 H :    0.095893
   9 H :    0.018199
  10 H :    0.029841
  11 H :    0.024772
  12 H :    0.033505
  13 H :    0.164998
Sum of atomic charges:    0.0000000

LOEWDIN ATOMIC CHARGES
----------------------
   0 N :   -0.098903
   1 C :    0.012969
   2 C :   -0.083557
   3 C :   -0.010622
   4 C :    0.041185
   5 O :   -0.012379
   6 O :   -0.158124
   7 H :    0.057806
   8 H :    0.054621
   9 H :    0.018133
  10 H :    0.039803
  11 H :    0.025201
  12 H :    0.028854
  13 H :    0.085012

  Mayer bond orders larger than 0.1
B(  0-N ,  1-C ) :   1.1244 B(  0-N ,  7-H ) :   0.9639 B(  0-N ,  8-H ) :   0.9654
B(  1-C ,  2-C ) :   1.0169 B(  1-C ,  9-H ) :   0.9141 B(  1-C , 10-H ) :   0.9096
B(  2-C ,  3-C ) :   1.9559 B(  2-C ,  4-C ) :   0.9565 B(  3-C , 11-H ) :   0.9070
B(  3-C , 12-H ) :   0.9235 B(  4-C ,  5-O ) :   1.2747 B(  4-C ,  6-O ) :   2.0867
B(  5-O , 13-H ) :   0.9462

FINAL SINGLE POINT ENERGY      -361.140382457169

DIPOLE MOMENT
-------------
                                X             Y             Z
Electronic contribution:      5.38276      -0.69937      -2.90969
Nuclear contribution   :     -5.61616       0.41954       3.15915
                        -----------------------------------------
Total Dipole Moment    :     -0.23340      -0.27983       0.24947
                        -----------------------------------------
Magnitude (a.u.)       :      0.44161
Magnitude (Debye)      :      1.12248

                             ****ORCA TERMINATED NORMALLY****
TOTAL RUN TIME: 0 days 0 hours 0 minutes 6 seconds 404 msec
