                         Program Version 3.0.3 - RELEASE   -
|  1> ! RI PBE def2-SVP def2-SVP/J NBO PAL2
|  2> % maxcore 2000
|  3> % output
|  4>     # printlevel mini
|  5>     print[ P_Basis ] 0
|  6>     print[ P_SCFInfo ] 1
|  7>     print[ P_SCFIterInfo ] 1
|  8>     print[ P_OrbEn ] 0
|  9>     print[ P_Cartesian ] 0
| 10> end
| 11> *xyz 0 1
| 12>  N        0.9515090000    -0.1810670000     0.1821170000
| 13>  C        2.3741830000     0.0053750000    -0.0556400000
| 14>  C        2.8684320000     1.2273060000     0.5536150000
| 15>  C        3.2807540000     2.2525280000     1.0281150000
| 16>  C        3.8420370000     3.4503730000     1.5923770000
| 17>  O        2.8948040000     4.2731190000     2.0676450000
| 18>  O        5.0177790000     3.6954670000     1.6365410000
| 19>  H        0.6320000000    -1.0221750000    -0.2814330000
| 20>  H        0.4257740000     0.5964280000    -0.1970730000
| 21>  H        2.6650780000     0.0340290000    -1.1185430000
| 22>  H        2.9159780000    -0.8381090000     0.3862190000
| 23>  H        3.3604730000     5.0424150000     2.4264810000
| 24> *
| 25>
| 26>                          ****END OF INPUT****
 Total Charge           Charge          ....    0
 Multiplicity           Mult            ....    1
 Number of Electrons    NEL             ....   52
 Basis Dimension        Dim             ....  123

MULLIKEN ATOMIC CHARGES
-----------------------
   0 N :   -0.212786
   1 C :    0.161092
   2 C :   -0.125653
   3 C :   -0.028797
   4 C :    0.061919
   5 O :   -0.129259
   6 O :   -0.164409
   7 H :    0.094694
   8 H :    0.101522
   9 H :    0.032988
  10 H :    0.038370
  11 H :    0.170319
Sum of atomic charges:   -0.0000000

LOEWDIN ATOMIC CHARGES
----------------------
   0 N :   -0.101720
   1 C :    0.002272
   2 C :    0.005865
   3 C :   -0.076596
   4 C :    0.020738
   5 O :   -0.001750
   6 O :   -0.134919
   7 H :    0.056750
   8 H :    0.057435
   9 H :    0.031791
  10 H :    0.051902
  11 H :    0.088231

  Mayer bond orders larger than 0.1
B(  0-N ,  1-C ) :   1.0898 B(  0-N ,  7-H ) :   0.9618 B(  0-N ,  8-H ) :   0.9675
B(  1-C ,  2-C ) :   1.0690 B(  1-C ,  9-H ) :   0.8945 B(  1-C , 10-H ) :   0.8810
B(  2-C ,  3-C ) :   2.6545 B(  3-C ,  4-C ) :   0.8691 B(  4-C ,  5-O ) :   1.2806
B(  4-C ,  6-O ) :   2.0997 B(  5-O , 11-H ) :   0.9488

FINAL SINGLE POINT ENERGY      -359.889626582895

DIPOLE MOMENT
-------------
                                X             Y             Z
Electronic contribution:      3.98128       6.05486       2.95395
Nuclear contribution   :     -4.73436      -6.42218      -3.59677
                        -----------------------------------------
Total Dipole Moment    :     -0.75308      -0.36732      -0.64281
                        -----------------------------------------
Magnitude (a.u.)       :      1.05606
Magnitude (Debye)      :      2.68429

                             ****ORCA TERMINATED NORMALLY****
TOTAL RUN TIME: 0 days 0 hours 0 minutes 5 seconds 889 msec
