                         Program Version 3.0.3 - RELEASE   -
|  1> ! RI PBE def2-SVP def2-SVP/J NBO PAL2
|  2> % maxcore 2000
|  3> % output
|  4>     # printlevel mini
|  5>     print[ P_Basis ] 0
|  6>     print[ P_SCFInfo ] 1
|  7>     print[ P_SCFIterInfo ] 1
|  8>     print[ P_OrbEn ] 0
|  9>     print[ P_Cartesian ] 0
| 10> end
| 11> *xyz 0 1
| 12>  N        2.7682340000     0.3991300000     1.4736390000
| 13>  C        2.3593260000    -0.0530840000     0.1504630000
| 14>  C        3.1093010000     0.7045340000    -0.9350630000
| 15>  C        4.6122650000     0.5036180000    -0.8752600000
| 16>  C        5.0580560000    -0.8394940000    -1.3732530000
| 17>  O        6.3875460000    -1.0011180000    -1.2388790000
| 18>  O        4.3570280000    -1.6920360000    -1.8502640000
| 19>  H        2.4092410000    -0.2151090000     2.1924630000
| 20>  H        2.4011260000     1.3238070000     1.6644910000
| 21>  H        1.2792760000     0.0460470000    -0.0335400000
| 22>  H        2.5943030000    -1.1171390000     0.0663850000
| 23>  H        2.8941710000     1.7744530000    -0.8366060000
| 24>  H        2.7312700000     0.3929410000    -1.9120610000
| 25>  H        4.9708740000     0.6186320000     0.1519880000
| 26>  H        5.1445150000     1.2538880000    -1.4687570000
| 27>  H        6.5927770000    -1.8794810000    -1.5884780000
| 28> *
| 29>
| 30>                          ****END OF INPUT****
 Total Charge           Charge          ....    0
 Multiplicity           Mult            ....    1
 Number of Electrons    NEL             ....   56
 Basis Dimension        Dim             ....  143

MULLIKEN ATOMIC CHARGES
-----------------------
   0 N :   -0.216664
   1 C :    0.041529
   2 C :    0.007799
   3 C :    0.002841
   4 C :    0.036732
   5 O :   -0.140969
   6 O :   -0.189260
   7 H :    0.093205
   8 H :    0.086984
   9 H :    0.001325
  10 H :    0.022311
  11 H :   -0.003839
  12 H :    0.013377
  13 H :    0.043030
  14 H :    0.039577
  15 H :    0.162022
Sum of atomic charges:    0.0000000

LOEWDIN ATOMIC CHARGES
----------------------
   0 N :   -0.109300
   1 C :    0.003485
   2 C :   -0.045231
   3 C :   -0.070874
   4 C :    0.045870
   5 O :   -0.020090
   6 O :   -0.160680
   7 H :    0.054159
   8 H :    0.049996
   9 H :    0.003571
  10 H :    0.022873
  11 H :    0.023151
  12 H :    0.029525
  13 H :    0.044249
  14 H :    0.046999
  15 H :    0.082298

  Mayer bond orders larger than 0.1
B(  0-N ,  1-C ) :   1.0814 B(  0-N ,  7-H ) :   0.9680 B(  0-N ,  8-H ) :   0.9699
B(  1-C ,  2-C ) :   1.0903 B(  1-C ,  9-H ) :   0.9300 B(  1-C , 10-H ) :   0.9376
B(  2-C ,  3-C ) :   1.0940 B(  2-C , 11-H ) :   0.9240 B(  2-C , 12-H ) :   0.9251
B(  3-C ,  4-C ) :   0.9747 B(  3-C , 13-H ) :   0.8970 B(  3-C , 14-H ) :   0.9101
B(  4-C ,  5-O ) :   1.2499 B(  4-C ,  6-O ) :   2.0888 B(  5-O , 15-H ) :   0.9491

FINAL SINGLE POINT ENERGY      -362.359658111701

DIPOLE MOMENT
-------------
                                X             Y             Z
Electronic contribution:      5.44896      -4.27298      -3.44208
Nuclear contribution   :     -5.56910       4.61374       3.81541
                        -----------------------------------------
Total Dipole Moment    :     -0.12014       0.34076       0.37333
                        -----------------------------------------
Magnitude (a.u.)       :      0.51955
Magnitude (Debye)      :      1.32058

                             ****ORCA TERMINATED NORMALLY****
TOTAL RUN TIME: 0 days 0 hours 0 minutes 7 seconds 510 msec
