                         Program Version 3.0.3 - RELEASE   -
|  1> ! RI PBE def2-SVP def2-SVP/J NBO PAL2
|  2> % maxcore 2000
|  3> % output
|  4>     # printlevel mini
|  5>     print[ P_Basis ] 0
|  6>     print[ P_SCFInfo ] 1
|  7>     print[ P_SCFIterInfo ] 1
|  8>     print[ P_OrbEn ] 0
|  9>     print[ P_Cartesian ] 0
| 10> end
| 11> *xyz 0 1
| 12>  N        1.6160060000    -0.2853890000     1.2087240000
| 13>  C        2.5334600000     0.0720690000     0.1356960000
| 14>  C        2.9078020000    -1.1367260000    -0.6518530000
| 15>  C        4.1654360000    -1.5319590000    -0.8266720000
| 16>  N        4.5624370000    -2.6424420000    -1.5537090000
| 17>  C        5.8531210000    -3.0380340000    -1.7190280000
| 18>  O        6.1935430000    -4.0074280000    -2.3497120000
| 19>  H        1.2926830000     0.5398670000     1.6974500000
| 20>  H        2.0795980000    -0.8800150000     1.8845900000
| 21>  H        3.4517550000     0.5792440000     0.4722640000
| 22>  H        2.0078870000     0.7808380000    -0.5152810000
| 23>  H        2.0874350000    -1.7114220000    -1.0754600000
| 24>  H        4.9913060000    -0.9749850000    -0.3931600000
| 25>  H        3.8621960000    -3.2170650000    -2.0006230000
| 26>  H        6.5675330000    -2.3665510000    -1.2072160000
| 27> *
| 28>
| 29>                          ****END OF INPUT****
 Total Charge           Charge          ....    0
 Multiplicity           Mult            ....    1
 Number of Electrons    NEL             ....   54
 Basis Dimension        Dim             ....  138

MULLIKEN ATOMIC CHARGES
-----------------------
   0 N :   -0.221254
   1 C :    0.127741
   2 C :   -0.113298
   3 C :    0.063912
   4 N :   -0.051353
   5 C :    0.118280
   6 O :   -0.207757
   7 H :    0.089141
   8 H :    0.087332
   9 H :   -0.011983
  10 H :    0.020212
  11 H :   -0.004496
  12 H :    0.001710
  13 H :    0.119608
  14 H :   -0.017797
Sum of atomic charges:   -0.0000000

LOEWDIN ATOMIC CHARGES
----------------------
   0 N :   -0.111241
   1 C :    0.008774
   2 C :   -0.085296
   3 C :   -0.001112
   4 N :    0.041621
   5 C :    0.055334
   6 O :   -0.165729
   7 H :    0.052146
   8 H :    0.049893
   9 H :    0.002273
  10 H :    0.029556
  11 H :    0.025037
  12 H :    0.025307
  13 H :    0.086878
  14 H :   -0.013443

  Mayer bond orders larger than 0.1
B(  0-N ,  1-C ) :   1.0642 B(  0-N ,  7-H ) :   0.9640 B(  0-N ,  8-H ) :   0.9707
B(  1-C ,  2-C ) :   1.0846 B(  1-C ,  9-H ) :   0.9242 B(  1-C , 10-H ) :   0.9152
B(  2-C ,  3-C ) :   1.7822 B(  2-C , 11-H ) :   0.9610 B(  3-C ,  4-N ) :   1.1159
B(  3-C , 12-H ) :   0.9451 B(  4-N ,  5-C ) :   1.1578 B(  4-N , 13-H ) :   0.9190
B(  5-C ,  6-O ) :   2.0745 B(  5-C , 14-H ) :   0.9196

FINAL SINGLE POINT ENERGY      -341.288905048653

DIPOLE MOMENT
-------------
                                X             Y             Z
Electronic contribution:      4.63564      -5.65643      -4.18563
Nuclear contribution   :     -5.09074       6.67089       4.94008
                        -----------------------------------------
Total Dipole Moment    :     -0.45510       1.01445       0.75445
                        -----------------------------------------
Magnitude (a.u.)       :      1.34366
Magnitude (Debye)      :      3.41532

                             ****ORCA TERMINATED NORMALLY****
TOTAL RUN TIME: 0 days 0 hours 0 minutes 6 seconds 717 msec
