                         Program Version 3.0.3 - RELEASE   -
|  1> ! RI PBE def2-SVP def2-SVP/J NBO PAL2
|  2> % maxcore 2000
|  3> % output
|  4>     # printlevel mini
|  5>     print[ P_Basis ] 0
|  6>     print[ P_SCFInfo ] 1
|  7>     print[ P_SCFIterInfo ] 1
|  8>     print[ P_OrbEn ] 0
|  9>     print[ P_Cartesian ] 0
| 10> end
| 11> *xyz 0 1
| 12>  N        3.4854500000     0.8450400000     0.5808180000
| 13>  C        2.5161880000     0.0723900000    -0.1848500000
| 14>  C        2.9309470000    -0.0411830000    -1.6295860000
| 15>  C        2.0574190000     0.0303020000    -2.6328550000
| 16>  N        4.3002530000    -0.2699270000    -1.7522680000
| 17>  C        5.0166580000    -0.5368380000    -2.8744690000
| 18>  O        4.5766010000    -0.6733660000    -3.9903420000
| 19>  H        3.3481690000     0.7210910000     1.5743230000
| 20>  H        3.4020980000     1.8338750000     0.3786850000
| 21>  H        1.4922090000     0.4611190000    -0.1500100000
| 22>  H        2.4944980000    -0.9350400000     0.2464670000
| 23>  H        1.0163180000     0.2182880000    -2.4016630000
| 24>  H        2.3515960000    -0.1110460000    -3.6612020000
| 25>  H        4.8107920000    -0.1048800000    -0.8933650000
| 26>  H        6.0960050000    -0.6271150000    -2.6471640000
| 27> *
| 28>
| 29>                          ****END OF INPUT****
 Total Charge           Charge          ....    0
 Multiplicity           Mult            ....    1
 Number of Electrons    NEL             ....   54
 Basis Dimension        Dim             ....  138

MULLIKEN ATOMIC CHARGES
-----------------------
   0 N :   -0.228435
   1 C :    0.134863
   2 C :   -0.102760
   3 C :   -0.049643
   4 N :   -0.032787
   5 C :    0.126665
   6 O :   -0.214414
   7 H :    0.103948
   8 H :    0.103830
   9 H :    0.002403
  10 H :    0.035424
  11 H :   -0.000980
  12 H :    0.038384
  13 H :    0.102738
  14 H :   -0.019236
Sum of atomic charges:   -0.0000000

LOEWDIN ATOMIC CHARGES
----------------------
   0 N :   -0.097613
   1 C :    0.011529
   2 C :   -0.013129
   3 C :   -0.097768
   4 N :    0.033560
   5 C :    0.053846
   6 O :   -0.162349
   7 H :    0.060009
   8 H :    0.060776
   9 H :    0.015546
  10 H :    0.034627
  11 H :    0.021586
  12 H :    0.028349
  13 H :    0.065602
  14 H :   -0.014570

  Mayer bond orders larger than 0.1
B(  0-N ,  1-C ) :   1.0713 B(  0-N ,  7-H ) :   0.9611 B(  0-N ,  8-H ) :   0.9698
B(  0-N , 13-H ) :   0.1088 B(  1-C ,  2-C ) :   1.0347 B(  1-C ,  9-H ) :   0.9216
B(  1-C , 10-H ) :   0.9196 B(  2-C ,  3-C ) :   1.9300 B(  2-C ,  4-N ) :   1.1029
B(  3-C , 11-H ) :   0.9094 B(  3-C , 12-H ) :   0.9206 B(  4-N ,  5-C ) :   1.1877
B(  4-N , 13-H ) :   0.8775 B(  5-C ,  6-O ) :   2.0244 B(  5-C , 14-H ) :   0.9225

FINAL SINGLE POINT ENERGY      -341.294304406275

DIPOLE MOMENT
-------------
                                X             Y             Z
Electronic contribution:      3.14899      -1.37625      -4.22002
Nuclear contribution   :     -3.34416       1.88292       6.07194
                        -----------------------------------------
Total Dipole Moment    :     -0.19517       0.50666       1.85193
                        -----------------------------------------
Magnitude (a.u.)       :      1.92988
Magnitude (Debye)      :      4.90536

                             ****ORCA TERMINATED NORMALLY****
TOTAL RUN TIME: 0 days 0 hours 0 minutes 6 seconds 499 msec
