                         Program Version 3.0.3 - RELEASE   -
|  1> ! RI PBE def2-SVP def2-SVP/J NBO PAL2
|  2> % maxcore 2000
|  3> % output
|  4>     # printlevel mini
|  5>     print[ P_Basis ] 0
|  6>     print[ P_SCFInfo ] 1
|  7>     print[ P_SCFIterInfo ] 1
|  8>     print[ P_OrbEn ] 0
|  9>     print[ P_Cartesian ] 0
| 10> end
| 11> *xyz 0 1
| 12>  N        2.7244420000     1.1113110000    -1.1040700000
| 13>  C        2.4419670000     0.0247420000    -0.1650700000
| 14>  C        3.0453830000    -1.2917990000    -0.6528010000
| 15>  C        2.5609950000    -1.6837420000    -2.0470160000
| 16>  N        1.1262200000    -1.4858140000    -2.2088690000
| 17>  C        4.5723670000    -1.2521900000    -0.6153650000
| 18>  O        5.1245870000    -0.2977380000    -1.4878490000
| 19>  H        2.5005430000     2.0067820000    -0.6892220000
| 20>  H        2.1242980000     1.0023870000    -1.9148970000
| 21>  H        1.3674420000    -0.1040330000     0.0109880000
| 22>  H        2.9018610000     0.2785610000     0.7954210000
| 23>  H        2.7279020000    -2.0660280000     0.0598380000
| 24>  H        2.8911630000    -2.7147990000    -2.2444540000
| 25>  H        3.0724120000    -1.0552770000    -2.7806120000
| 26>  H        0.6059960000    -2.1078390000    -1.6009500000
| 27>  H        0.8446080000    -1.7044560000    -3.1560890000
| 28>  H        4.9774040000    -2.2290160000    -0.9034550000
| 29>  H        4.8909940000    -1.0666050000     0.4229610000
| 30>  H        4.5232130000     0.4701350000    -1.4619890000
| 31> *
| 32>
| 33>                          ****END OF INPUT****
 Total Charge           Charge          ....    0
 Multiplicity           Mult            ....    1
 Number of Electrons    NEL             ....   58
 Basis Dimension        Dim             ....  158

MULLIKEN ATOMIC CHARGES
-----------------------
   0 N :   -0.226856
   1 C :    0.122964
   2 C :   -0.217669
   3 C :    0.087708
   4 N :   -0.203912
   5 C :    0.251121
   6 O :   -0.304439
   7 H :    0.099791
   8 H :    0.106987
   9 H :   -0.000438
  10 H :    0.000823
  11 H :    0.000481
  12 H :   -0.006645
  13 H :    0.007205
  14 H :    0.091466
  15 H :    0.091265
  16 H :   -0.013558
  17 H :   -0.020273
  18 H :    0.133979
Sum of atomic charges:    0.0000000

LOEWDIN ATOMIC CHARGES
----------------------
   0 N :   -0.072547
   1 C :    0.011726
   2 C :   -0.080978
   3 C :    0.004483
   4 N :   -0.109665
   5 C :    0.065301
   6 O :   -0.139293
   7 H :    0.058208
   8 H :    0.056796
   9 H :    0.004575
  10 H :    0.019276
  11 H :    0.025806
  12 H :    0.003782
  13 H :    0.015928
  14 H :    0.051320
  15 H :    0.054582
  16 H :    0.010119
  17 H :   -0.002600
  18 H :    0.023182

  Mayer bond orders larger than 0.1
B(  0-N ,  1-C ) :   1.0625 B(  0-N ,  7-H ) :   0.9605 B(  0-N ,  8-H ) :   0.9538
B(  0-N , 18-H ) :   0.1638 B(  1-C ,  2-C ) :   1.0522 B(  1-C ,  9-H ) :   0.9228
B(  1-C , 10-H ) :   0.9353 B(  2-C ,  3-C ) :   1.0393 B(  2-C ,  5-C ) :   1.0489
B(  2-C , 11-H ) :   0.8919 B(  3-C ,  4-N ) :   1.0920 B(  3-C , 12-H ) :   0.9339
B(  3-C , 13-H ) :   0.9182 B(  4-N , 14-H ) :   0.9651 B(  4-N , 15-H ) :   0.9646
B(  5-C ,  6-O ) :   1.0916 B(  5-C , 16-H ) :   0.9302 B(  5-C , 17-H ) :   0.9246
B(  6-O , 18-H ) :   0.9261

FINAL SINGLE POINT ENERGY      -343.675241294183

DIPOLE MOMENT
-------------
                                X             Y             Z
Electronic contribution:      2.04127       1.00791      -0.75781
Nuclear contribution   :     -3.34133      -1.15414       0.93490
                        -----------------------------------------
Total Dipole Moment    :     -1.30006      -0.14622       0.17709
                        -----------------------------------------
Magnitude (a.u.)       :      1.32019
Magnitude (Debye)      :      3.35565

                             ****ORCA TERMINATED NORMALLY****
TOTAL RUN TIME: 0 days 0 hours 0 minutes 8 seconds 542 msec
