                         Program Version 3.0.3 - RELEASE   -
|  1> ! RI PBE def2-SVP def2-SVP/J NBO PAL2
|  2> % maxcore 2000
|  3> % output
|  4>     # printlevel mini
|  5>     print[ P_Basis ] 0
|  6>     print[ P_SCFInfo ] 1
|  7>     print[ P_SCFIterInfo ] 1
|  8>     print[ P_OrbEn ] 0
|  9>     print[ P_Cartesian ] 0
| 10> end
| 11> *xyz 0 1
| 12>  N        1.3311670000     0.3748520000    -0.9512850000
| 13>  C        2.0844750000     0.7718970000     0.2279420000
| 14>  C        3.5701640000     0.8104100000    -0.0878050000
| 15>  C        4.4721360000     1.1138370000     1.1024500000
| 16>  N        5.9000560000     1.0570270000     0.7918770000
| 17>  C        4.2115710000     2.4855390000     1.7153250000
| 18>  O        5.1044790000     2.7430460000     2.7644340000
| 19>  H        0.3362680000     0.3987970000    -0.7672850000
| 20>  H        1.5596200000    -0.5771330000    -1.2120640000
| 21>  H        1.9214360000     0.1182560000     1.1012420000
| 22>  H        1.7412030000     1.7690130000     0.5174990000
| 23>  H        3.8655970000    -0.1623130000    -0.5019620000
| 24>  H        3.7444700000     1.5466910000    -0.8814670000
| 25>  H        4.2968870000     0.3708160000     1.8899320000
| 26>  H        6.0934060000     1.5502320000    -0.0733610000
| 27>  H        6.2140730000     0.1033920000     0.6701110000
| 28>  H        3.1982060000     2.5435980000     2.1197370000
| 29>  H        4.2945970000     3.2499030000     0.9226100000
| 30>  H        5.9389790000     2.3470110000     2.4706510000
| 31> *
| 32>
| 33>                          ****END OF INPUT****
 Total Charge           Charge          ....    0
 Multiplicity           Mult            ....    1
 Number of Electrons    NEL             ....   58
 Basis Dimension        Dim             ....  158

MULLIKEN ATOMIC CHARGES
-----------------------
   0 N :   -0.209191
   1 C :    0.057691
   2 C :    0.012431
   3 C :   -0.102989
   4 N :   -0.190170
   5 C :    0.215463
   6 O :   -0.284448
   7 H :    0.089061
   8 H :    0.085987
   9 H :   -0.005072
  10 H :    0.014306
  11 H :   -0.012928
  12 H :    0.006604
  13 H :    0.006562
  14 H :    0.094794
  15 H :    0.097866
  16 H :    0.006789
  17 H :   -0.020116
  18 H :    0.137360
Sum of atomic charges:   -0.0000000

LOEWDIN ATOMIC CHARGES
----------------------
   0 N :   -0.112484
   1 C :    0.005617
   2 C :   -0.059694
   3 C :   -0.023270
   4 N :   -0.077279
   5 C :    0.047821
   6 O :   -0.129422
   7 H :    0.053278
   8 H :    0.048596
   9 H :   -0.000479
  10 H :    0.020790
  11 H :    0.016057
  12 H :    0.022244
  13 H :    0.020836
  14 H :    0.054285
  15 H :    0.055952
  16 H :    0.015918
  17 H :   -0.001630
  18 H :    0.042864

  Mayer bond orders larger than 0.1
B(  0-N ,  1-C ) :   1.0881 B(  0-N ,  7-H ) :   0.9629 B(  0-N ,  8-H ) :   0.9692
B(  1-C ,  2-C ) :   1.0799 B(  1-C ,  9-H ) :   0.9312 B(  1-C , 10-H ) :   0.9277
B(  2-C ,  3-C ) :   1.0280 B(  2-C , 11-H ) :   0.9267 B(  2-C , 12-H ) :   0.9154
B(  3-C ,  4-N ) :   1.0684 B(  3-C ,  5-C ) :   1.0386 B(  3-C , 13-H ) :   0.9034
B(  4-N , 14-H ) :   0.9677 B(  4-N , 15-H ) :   0.9666 B(  4-N , 18-H ) :   0.1135
B(  5-C ,  6-O ) :   1.0989 B(  5-C , 16-H ) :   0.9335 B(  5-C , 17-H ) :   0.9101
B(  6-O , 18-H ) :   0.9498

FINAL SINGLE POINT ENERGY      -343.670953546727

DIPOLE MOMENT
-------------
                                X             Y             Z
Electronic contribution:      2.35572       1.59888       2.47714
Nuclear contribution   :     -2.54856      -2.63112      -3.17307
                        -----------------------------------------
Total Dipole Moment    :     -0.19284      -1.03224      -0.69593
                        -----------------------------------------
Magnitude (a.u.)       :      1.25977
Magnitude (Debye)      :      3.20207

                             ****ORCA TERMINATED NORMALLY****
TOTAL RUN TIME: 0 days 0 hours 0 minutes 8 seconds 221 msec
