                         Program Version 3.0.3 - RELEASE   -
|  1> ! RI PBE def2-SVP def2-SVP/J NBO PAL2
|  2> % maxcore 2000
|  3> % output
|  4>     # printlevel mini
|  5>     print[ P_Basis ] 0
|  6>     print[ P_SCFInfo ] 1
|  7>     print[ P_SCFIterInfo ] 1
|  8>     print[ P_OrbEn ] 0
|  9>     print[ P_Cartesian ] 0
| 10> end
| 11> *xyz 0 1
| 12>  N        0.0233260000     0.4966580000    -0.5087140000
| 13>  C        1.3354270000     0.1600330000     0.0205210000
| 14>  C        2.4240420000     0.8454580000    -0.7832540000
| 15>  C        3.8126160000     0.5637220000    -0.2311410000
| 16>  N        4.8667210000     1.1940760000    -0.9923480000
| 17>  C        5.6056460000     0.5334880000    -1.9092710000
| 18>  O        5.5130650000    -0.6453050000    -2.1659160000
| 19>  H       -0.7068440000     0.0689060000     0.0465610000
| 20>  H       -0.0771200000     0.1368570000    -1.4506180000
| 21>  H        1.5398340000    -0.9226360000     0.0478630000
| 22>  H        1.3783070000     0.5107050000     1.0577710000
| 23>  H        2.2286950000     1.9228470000    -0.7942400000
| 24>  H        2.3863460000     0.5040020000    -1.8237700000
| 25>  H        4.0171190000    -0.5083440000    -0.2491360000
| 26>  H        3.8817350000     0.8963960000     0.8097310000
| 27>  H        5.0005440000     2.1877360000    -0.9131660000
| 28>  H        6.3354410000     1.1960910000    -2.4123720000
| 29> *
| 30>
| 31>                          ****END OF INPUT****
 Total Charge           Charge          ....    0
 Multiplicity           Mult            ....    1
 Number of Electrons    NEL             ....   56
 Basis Dimension        Dim             ....  148

MULLIKEN ATOMIC CHARGES
-----------------------
   0 N :   -0.205861
   1 C :    0.053526
   2 C :   -0.046770
   3 C :    0.097693
   4 N :   -0.133640
   5 C :    0.124131
   6 O :   -0.239968
   7 H :    0.089274
   8 H :    0.089733
   9 H :    0.001733
  10 H :    0.002762
  11 H :    0.014360
  12 H :    0.017002
  13 H :    0.032698
  14 H :    0.013700
  15 H :    0.113123
  16 H :   -0.023494
Sum of atomic charges:   -0.0000000

LOEWDIN ATOMIC CHARGES
----------------------
   0 N :   -0.112321
   1 C :    0.005468
   2 C :   -0.056647
   3 C :    0.023594
   4 N :    0.003390
   5 C :    0.043981
   6 O :   -0.190880
   7 H :    0.053474
   8 H :    0.051073
   9 H :    0.001824
  10 H :    0.018608
  11 H :    0.022717
  12 H :    0.026607
  13 H :    0.031022
  14 H :    0.022362
  15 H :    0.072435
  16 H :   -0.016708

  Mayer bond orders larger than 0.1
B(  0-N ,  1-C ) :   1.0989 B(  0-N ,  7-H ) :   0.9641 B(  0-N ,  8-H ) :   0.9685
B(  1-C ,  2-C ) :   1.0962 B(  1-C ,  9-H ) :   0.9305 B(  1-C , 10-H ) :   0.9295
B(  2-C ,  3-C ) :   1.0854 B(  2-C , 11-H ) :   0.9318 B(  2-C , 12-H ) :   0.9317
B(  3-C ,  4-N ) :   0.9885 B(  3-C , 13-H ) :   0.9196 B(  3-C , 14-H ) :   0.9368
B(  4-N ,  5-C ) :   1.2295 B(  4-N ,  6-O ) :   0.1045 B(  4-N , 15-H ) :   0.9297
B(  5-C ,  6-O ) :   2.0059 B(  5-C , 16-H ) :   0.9229

FINAL SINGLE POINT ENERGY      -342.500789856869

DIPOLE MOMENT
-------------
                                X             Y             Z
Electronic contribution:      6.44245      -0.77167      -2.89878
Nuclear contribution   :     -6.93799       1.50889       3.49714
                        -----------------------------------------
Total Dipole Moment    :     -0.49554       0.73722       0.59836
                        -----------------------------------------
Magnitude (a.u.)       :      1.07102
Magnitude (Debye)      :      2.72232

                             ****ORCA TERMINATED NORMALLY****
TOTAL RUN TIME: 0 days 0 hours 0 minutes 7 seconds 779 msec
