                         Program Version 3.0.3 - RELEASE   -
|  1> ! RI PBE def2-SVP def2-SVP/J NBO PAL2
|  2> % maxcore 2000
|  3> % output
|  4>     # printlevel mini
|  5>     print[ P_Basis ] 0
|  6>     print[ P_SCFInfo ] 1
|  7>     print[ P_SCFIterInfo ] 1
|  8>     print[ P_OrbEn ] 0
|  9>     print[ P_Cartesian ] 0
| 10> end
| 11> *xyz 0 1
| 12>  N        1.0970240000     0.1932080000     0.0620990000
| 13>  C        2.4265850000     0.0573010000    -0.0680870000
| 14>  C        3.1215600000    -0.7916540000    -0.8844930000
| 15>  C        2.4481360000    -1.7225740000    -1.7803970000
| 16>  O        2.9875070000    -2.5003420000    -2.5282950000
| 17>  C        4.5406510000    -0.7612850000    -0.8545940000
| 18>  C        5.7431770000    -0.7440080000    -0.8375650000
| 19>  H        0.7222600000     0.8627290000     0.7058590000
| 20>  H        0.4461380000    -0.3564510000    -0.4671140000
| 21>  H        3.0011070000     0.7206160000     0.5703200000
| 22>  H        1.3351030000    -1.6860230000    -1.7456510000
| 23>  H        6.8069030000    -0.7348770000    -0.8292200000
| 24> *
| 25>
| 26>                          ****END OF INPUT****
 Total Charge           Charge          ....    0
 Multiplicity           Mult            ....    1
 Number of Electrons    NEL             ....   50
 Basis Dimension        Dim             ....  123

MULLIKEN ATOMIC CHARGES
-----------------------
   0 N :   -0.027017
   1 C :    0.034036
   2 C :   -0.111205
   3 C :    0.106135
   4 O :   -0.154439
   5 C :    0.405550
   6 C :   -0.460376
   7 H :    0.134849
   8 H :    0.121111
   9 H :    0.020128
  10 H :   -0.064866
  11 H :   -0.003906
Sum of atomic charges:   -0.0000000

LOEWDIN ATOMIC CHARGES
----------------------
   0 N :    0.057113
   1 C :    0.063921
   2 C :   -0.172157
   3 C :    0.061053
   4 O :   -0.121411
   5 C :   -0.011086
   6 C :   -0.081319
   7 H :    0.084980
   8 H :    0.073625
   9 H :    0.040472
  10 H :   -0.027706
  11 H :    0.032515

  Mayer bond orders larger than 0.1
B(  0-N ,  1-C ) :   1.3629 B(  0-N ,  7-H ) :   0.9504 B(  0-N ,  8-H ) :   0.9477
B(  1-C ,  2-C ) :   1.5226 B(  1-C ,  9-H ) :   0.9425 B(  2-C ,  3-C ) :   1.0328
B(  2-C ,  5-C ) :   1.0105 B(  3-C ,  4-O ) :   2.1646 B(  3-C , 10-H ) :   0.9226
B(  5-C ,  6-C ) :   2.2782 B(  5-C , 11-H ) :  -0.1077 B(  6-C , 11-H ) :   1.0982

FINAL SINGLE POINT ENERGY      -322.799276551027

DIPOLE MOMENT
-------------
                                X             Y             Z
Electronic contribution:      1.57341      -1.73689      -1.67028
Nuclear contribution   :     -3.02003       3.10871       2.98824
                        -----------------------------------------
Total Dipole Moment    :     -1.44662       1.37182       1.31797
                        -----------------------------------------
Magnitude (a.u.)       :      2.38990
Magnitude (Debye)      :      6.07465

                             ****ORCA TERMINATED NORMALLY****
TOTAL RUN TIME: 0 days 0 hours 0 minutes 5 seconds 638 msec
