                         Program Version 3.0.3 - RELEASE   -
|  1> ! RI PBE def2-SVP def2-SVP/J NBO PAL2
|  2> % maxcore 2000
|  3> % output
|  4>     # printlevel mini
|  5>     print[ P_Basis ] 0
|  6>     print[ P_SCFInfo ] 1
|  7>     print[ P_SCFIterInfo ] 1
|  8>     print[ P_OrbEn ] 0
|  9>     print[ P_Cartesian ] 0
| 10> end
| 11> *xyz 0 1
| 12>  N        0.5131990000     0.5409800000    -0.4091050000
| 13>  C        1.8101470000     0.3584470000    -0.1078630000
| 14>  C        2.8790780000     0.8311460000    -0.7844030000
| 15>  C        4.2179740000     0.5279000000    -0.3030090000
| 16>  O        4.4393360000    -0.1415970000     0.6957660000
| 17>  C        5.3362380000     1.0909440000    -1.1126410000
| 18>  C        6.6042620000     0.8859220000    -0.7791470000
| 19>  H       -0.2083300000     0.1449700000     0.1614680000
| 20>  H        0.2347000000     1.0767930000    -1.2110370000
| 21>  H        2.0072930000    -0.2366730000     0.7799910000
| 22>  H        2.7594180000     1.4324370000    -1.6796290000
| 23>  H        5.0776500000     1.6778860000    -1.9895720000
| 24>  H        6.8374600000     0.2962460000     0.1012340000
| 25>  H        7.4234650000     1.2910090000    -1.3613440000
| 26> *
| 27>
| 28>                          ****END OF INPUT****
 Total Charge           Charge          ....    0
 Multiplicity           Mult            ....    1
 Number of Electrons    NEL             ....   52
 Basis Dimension        Dim             ....  133

MULLIKEN ATOMIC CHARGES
-----------------------
   0 N :   -0.036991
   1 C :    0.053641
   2 C :   -0.111511
   3 C :    0.078458
   4 O :   -0.215481
   5 C :   -0.067148
   6 C :    0.029142
   7 H :    0.129224
   8 H :    0.118080
   9 H :    0.017871
  10 H :   -0.032688
  11 H :   -0.018746
  12 H :    0.034539
  13 H :    0.021609
Sum of atomic charges:    0.0000000

LOEWDIN ATOMIC CHARGES
----------------------
   0 N :    0.048248
   1 C :    0.058952
   2 C :   -0.166488
   3 C :    0.027802
   4 O :   -0.182454
   5 C :   -0.068044
   6 C :   -0.001749
   7 H :    0.079912
   8 H :    0.078030
   9 H :    0.033408
  10 H :    0.016327
  11 H :    0.020825
  12 H :    0.029816
  13 H :    0.025415

  Mayer bond orders larger than 0.1
B(  0-N ,  1-C ) :   1.3307 B(  0-N ,  7-H ) :   0.9541 B(  0-N ,  8-H ) :   0.9532
B(  1-C ,  2-C ) :   1.5964 B(  1-C ,  9-H ) :   0.9258 B(  2-C ,  3-C ) :   1.0676
B(  2-C , 10-H ) :   0.9573 B(  3-C ,  4-O ) :   2.0526 B(  3-C ,  5-C ) :   0.9908
B(  5-C ,  6-C ) :   1.9493 B(  5-C , 11-H ) :   0.9515 B(  6-C , 12-H ) :   0.9254
B(  6-C , 13-H ) :   0.9372

FINAL SINGLE POINT ENERGY      -324.052496256863

DIPOLE MOMENT
-------------
                                X             Y             Z
Electronic contribution:     -0.48628      -1.13381       1.66665
Nuclear contribution   :     -1.23198       1.57351      -2.36526
                        -----------------------------------------
Total Dipole Moment    :     -1.71826       0.43969      -0.69861
                        -----------------------------------------
Magnitude (a.u.)       :      1.90625
Magnitude (Debye)      :      4.84531

                             ****ORCA TERMINATED NORMALLY****
TOTAL RUN TIME: 0 days 0 hours 0 minutes 6 seconds 813 msec
