                         Program Version 3.0.3 - RELEASE   -
|  1> ! RI PBE def2-SVP def2-SVP/J NBO PAL2
|  2> % maxcore 2000
|  3> % output
|  4>     # printlevel mini
|  5>     print[ P_Basis ] 0
|  6>     print[ P_SCFInfo ] 1
|  7>     print[ P_SCFIterInfo ] 1
|  8>     print[ P_OrbEn ] 0
|  9>     print[ P_Cartesian ] 0
| 10> end
| 11> *xyz 0 1
| 12>  N        1.0502420000    -0.0137770000     0.0256190000
| 13>  C        2.3889620000     0.1042630000    -0.0176690000
| 14>  C        3.1539230000     0.8353280000     0.8221670000
| 15>  C        4.5910930000     0.9072360000     0.7042440000
| 16>  O        5.2948630000     1.5617030000     1.4531430000
| 17>  C        5.2168640000     0.1462920000    -0.3790930000
| 18>  C        5.7708990000    -0.4631960000    -1.2545920000
| 19>  H        0.5601300000    -0.5794870000    -0.6395320000
| 20>  H        0.5095670000     0.4621900000     0.7249890000
| 21>  H        2.8706740000    -0.4538060000    -0.8155640000
| 22>  H        2.7214910000     1.4101330000     1.6346220000
| 23>  H        6.2840910000    -0.9942790000    -2.0219440000
| 24> *
| 25>
| 26>                          ****END OF INPUT****
 Total Charge           Charge          ....    0
 Multiplicity           Mult            ....    1
 Number of Electrons    NEL             ....   50
 Basis Dimension        Dim             ....  123

MULLIKEN ATOMIC CHARGES
-----------------------
   0 N :   -0.033814
   1 C :    0.045565
   2 C :   -0.062098
   3 C :    0.077108
   4 O :   -0.181086
   5 C :    0.359844
   6 C :   -0.464839
   7 H :    0.127002
   8 H :    0.121397
   9 H :    0.026583
  10 H :   -0.022398
  11 H :    0.006735
Sum of atomic charges:   -0.0000000

LOEWDIN ATOMIC CHARGES
----------------------
   0 N :    0.047555
   1 C :    0.044085
   2 C :   -0.137284
   3 C :    0.011313
   4 O :   -0.141056
   5 C :   -0.031675
   6 C :   -0.057660
   7 H :    0.080399
   8 H :    0.081022
   9 H :    0.036842
  10 H :    0.029640
  11 H :    0.036819

  Mayer bond orders larger than 0.1
B(  0-N ,  1-C ) :   1.3361 B(  0-N ,  7-H ) :   0.9497 B(  0-N ,  8-H ) :   0.9549
B(  1-C ,  2-C ) :   1.5492 B(  1-C ,  9-H ) :   0.9192 B(  2-C ,  3-C ) :   1.1277
B(  2-C , 10-H ) :   0.9753 B(  3-C ,  4-O ) :   2.0408 B(  3-C ,  5-C ) :   0.8598
B(  5-C ,  6-C ) :   2.3392 B(  5-C , 11-H ) :  -0.1066 B(  6-C , 11-H ) :   1.0946

FINAL SINGLE POINT ENERGY      -322.801727275781

DIPOLE MOMENT
-------------
                                X             Y             Z
Electronic contribution:      3.76913       1.29179       1.12632
Nuclear contribution   :     -5.90970      -2.25339      -2.06607
                        -----------------------------------------
Total Dipole Moment    :     -2.14058      -0.96160      -0.93974
                        -----------------------------------------
Magnitude (a.u.)       :      2.52782
Magnitude (Debye)      :      6.42520

                             ****ORCA TERMINATED NORMALLY****
TOTAL RUN TIME: 0 days 0 hours 0 minutes 5 seconds 639 msec
