                         Program Version 3.0.3 - RELEASE   -
|  1> ! RI PBE def2-SVP def2-SVP/J NBO PAL2
|  2> % maxcore 2000
|  3> % output
|  4>     # printlevel mini
|  5>     print[ P_Basis ] 0
|  6>     print[ P_SCFInfo ] 1
|  7>     print[ P_SCFIterInfo ] 1
|  8>     print[ P_OrbEn ] 0
|  9>     print[ P_Cartesian ] 0
| 10> end
| 11> *xyz 0 1
| 12>  N        1.5476870000     0.6378470000    -0.6836040000
| 13>  C        2.8222720000     0.5492800000    -0.2259710000
| 14>  C        3.2644660000     0.8852610000     1.0201360000
| 15>  C        2.4284570000     1.3994890000     2.0722250000
| 16>  O        2.8172700000     1.6992600000     3.1805990000
| 17>  C        3.7583900000     0.0485490000    -1.1813280000
| 18>  C        4.5313640000    -0.3741260000    -1.9977160000
| 19>  H        0.8057620000     0.9762390000    -0.1014740000
| 20>  H        1.3350260000     0.3623350000    -1.6226450000
| 21>  H        4.3159210000     0.7586500000     1.2391330000
| 22>  H        1.3472830000     1.5239060000     1.8299410000
| 23>  H        5.2293920000    -0.7470990000    -2.7103090000
| 24> *
| 25>
| 26>                          ****END OF INPUT****
 Total Charge           Charge          ....    0
 Multiplicity           Mult            ....    1
 Number of Electrons    NEL             ....   50
 Basis Dimension        Dim             ....  123

MULLIKEN ATOMIC CHARGES
-----------------------
   0 N :   -0.023277
   1 C :   -0.040284
   2 C :   -0.019142
   3 C :    0.101279
   4 O :   -0.191615
   5 C :    0.400909
   6 C :   -0.424565
   7 H :    0.114910
   8 H :    0.121696
   9 H :   -0.001057
  10 H :   -0.057172
  11 H :    0.018318
Sum of atomic charges:   -0.0000000

LOEWDIN ATOMIC CHARGES
----------------------
   0 N :    0.045768
   1 C :    0.016917
   2 C :   -0.129042
   3 C :    0.045574
   4 O :   -0.141484
   5 C :   -0.015479
   6 C :   -0.032716
   7 H :    0.071754
   8 H :    0.082771
   9 H :    0.041378
  10 H :   -0.028186
  11 H :    0.042745

  Mayer bond orders larger than 0.1
B(  0-N ,  1-C ) :   1.3451 B(  0-N ,  7-H ) :   0.9388 B(  0-N ,  8-H ) :   0.9410
B(  1-C ,  2-C ) :   1.4946 B(  1-C ,  5-C ) :   0.9696 B(  2-C ,  3-C ) :   1.0938
B(  2-C ,  9-H ) :   0.9437 B(  3-C ,  4-O ) :   2.0672 B(  3-C , 10-H ) :   0.9278
B(  5-C ,  6-C ) :   2.2936 B(  5-C , 11-H ) :  -0.1022 B(  6-C , 11-H ) :   1.0923

FINAL SINGLE POINT ENERGY      -322.797210348133

DIPOLE MOMENT
-------------
                                X             Y             Z
Electronic contribution:      1.01993       0.17089       1.09156
Nuclear contribution   :     -1.67892      -0.70045      -3.02996
                        -----------------------------------------
Total Dipole Moment    :     -0.65899      -0.52957      -1.93840
                        -----------------------------------------
Magnitude (a.u.)       :      2.11473
Magnitude (Debye)      :      5.37522

                             ****ORCA TERMINATED NORMALLY****
TOTAL RUN TIME: 0 days 0 hours 0 minutes 6 seconds 1 msec
