                         Program Version 3.0.3 - RELEASE   -
|  1> ! RI PBE def2-SVP def2-SVP/J NBO PAL2
|  2> % maxcore 2000
|  3> % output
|  4>     # printlevel mini
|  5>     print[ P_Basis ] 0
|  6>     print[ P_SCFInfo ] 1
|  7>     print[ P_SCFIterInfo ] 1
|  8>     print[ P_OrbEn ] 0
|  9>     print[ P_Cartesian ] 0
| 10> end
| 11> *xyz 0 1
| 12>  N        1.3207370000     0.5577430000     0.1204400000
| 13>  C        2.5677470000     0.1233400000    -0.5052060000
| 14>  C        2.5456950000    -1.3420390000    -0.9604570000
| 15>  C        3.8818100000    -1.8658360000    -1.4537380000
| 16>  O        3.8225520000    -3.2154110000    -1.8677040000
| 17>  C        2.8753040000     1.0381830000    -1.6508290000
| 18>  C        3.9655310000     1.7798790000    -1.7673200000
| 19>  H        1.0642710000    -0.0806380000     0.8652200000
| 20>  H        0.5657950000     0.5285520000    -0.5566210000
| 21>  H        3.3607100000     0.2419210000     0.2431920000
| 22>  H        1.7967550000    -1.4691200000    -1.7510450000
| 23>  H        2.2143160000    -1.9547600000    -0.1109450000
| 24>  H        4.6467440000    -1.7269310000    -0.6750220000
| 25>  H        4.2109950000    -1.3000590000    -2.3272220000
| 26>  H        3.5459950000    -3.7496400000    -1.1189310000
| 27>  H        2.1243810000     1.0640160000    -2.4413720000
| 28>  H        4.7328420000     1.7823300000    -0.9992920000
| 29>  H        4.1310210000     2.4155780000    -2.6294480000
| 30> *
| 31>
| 32>                          ****END OF INPUT****
 Total Charge           Charge          ....    0
 Multiplicity           Mult            ....    1
 Number of Electrons    NEL             ....   56
 Basis Dimension        Dim             ....  153

MULLIKEN ATOMIC CHARGES
-----------------------
   0 N :   -0.163162
   1 C :   -0.012993
   2 C :   -0.025664
   3 C :    0.170573
   4 O :   -0.282091
   5 C :   -0.024314
   6 C :   -0.032312
   7 H :    0.083083
   8 H :    0.084225
   9 H :   -0.001896
  10 H :    0.007730
  11 H :   -0.012256
  12 H :   -0.003385
  13 H :    0.016653
  14 H :    0.150361
  15 H :   -0.002146
  16 H :    0.022847
  17 H :    0.024750
Sum of atomic charges:   -0.0000000

LOEWDIN ATOMIC CHARGES
----------------------
   0 N :   -0.090497
   1 C :   -0.002251
   2 C :   -0.077634
   3 C :    0.052318
   4 O :   -0.122955
   5 C :   -0.021594
   6 C :   -0.056843
   7 H :    0.048737
   8 H :    0.048438
   9 H :    0.022792
  10 H :    0.021724
  11 H :    0.013869
  12 H :    0.003328
  13 H :    0.021761
  14 H :    0.064884
  15 H :    0.024040
  16 H :    0.023793
  17 H :    0.026090

  Mayer bond orders larger than 0.1
B(  0-N ,  1-C ) :   1.0633 B(  0-N ,  7-H ) :   0.9657 B(  0-N ,  8-H ) :   0.9686
B(  1-C ,  2-C ) :   1.0043 B(  1-C ,  5-C ) :   1.0181 B(  1-C ,  9-H ) :   0.9104
B(  2-C ,  3-C ) :   1.0564 B(  2-C , 10-H ) :   0.9199 B(  2-C , 11-H ) :   0.9185
B(  3-C ,  4-O ) :   1.0541 B(  3-C , 12-H ) :   0.9355 B(  3-C , 13-H ) :   0.9325
B(  4-O , 14-H ) :   0.9876 B(  5-C ,  6-C ) :   2.0222 B(  5-C , 15-H ) :   0.9427
B(  6-C , 16-H ) :   0.9480 B(  6-C , 17-H ) :   0.9402

FINAL SINGLE POINT ENERGY      -326.423221703745

DIPOLE MOMENT
-------------
                                X             Y             Z
Electronic contribution:      0.15106      -1.48950      -0.60063
Nuclear contribution   :     -0.47069       1.19475       1.03166
                        -----------------------------------------
Total Dipole Moment    :     -0.31963      -0.29475       0.43102
                        -----------------------------------------
Magnitude (a.u.)       :      0.61223
Magnitude (Debye)      :      1.55616

                             ****ORCA TERMINATED NORMALLY****
TOTAL RUN TIME: 0 days 0 hours 0 minutes 7 seconds 843 msec
