                         Program Version 3.0.3 - RELEASE   -
|  1> ! RI PBE def2-SVP def2-SVP/J NBO PAL2
|  2> % maxcore 2000
|  3> % output
|  4>     # printlevel mini
|  5>     print[ P_Basis ] 0
|  6>     print[ P_SCFInfo ] 1
|  7>     print[ P_SCFIterInfo ] 1
|  8>     print[ P_OrbEn ] 0
|  9>     print[ P_Cartesian ] 0
| 10> end
| 11> *xyz 0 1
| 12>  N        1.2164310000    -0.3512070000    -0.8540830000
| 13>  C        2.4048170000    -0.0297260000    -0.0711870000
| 14>  C        2.2030910000     1.0825620000     0.9693190000
| 15>  C        3.4752180000     1.4992240000     1.6843790000
| 16>  O        3.2561450000     2.5211610000     2.6336370000
| 17>  C        2.9093820000    -1.2466940000     0.5607950000
| 18>  C        3.3101550000    -2.2355660000     1.1100930000
| 19>  H        0.8346900000     0.4957730000    -1.2587870000
| 20>  H        0.5037680000    -0.7467100000    -0.2519050000
| 21>  H        3.1709070000     0.3072610000    -0.7824600000
| 22>  H        1.4622320000     0.7592280000     1.7070980000
| 23>  H        1.7829330000     1.9497050000     0.4433200000
| 24>  H        4.2365080000     1.8009190000     0.9495520000
| 25>  H        3.8832190000     0.6540620000     2.2417590000
| 26>  H        2.9344950000     3.3001670000     2.1730650000
| 27>  H        3.6688990000    -3.1180590000     1.5849060000
| 28> *
| 29>
| 30>                          ****END OF INPUT****
 Total Charge           Charge          ....    0
 Multiplicity           Mult            ....    1
 Number of Electrons    NEL             ....   54
 Basis Dimension        Dim             ....  143

MULLIKEN ATOMIC CHARGES
-----------------------
   0 N :   -0.163678
   1 C :    0.028764
   2 C :   -0.010334
   3 C :    0.165089
   4 O :   -0.281790
   5 C :    0.383270
   6 C :   -0.501453
   7 H :    0.087393
   8 H :    0.094538
   9 H :    0.022651
  10 H :    0.016028
  11 H :   -0.013302
  12 H :   -0.003980
  13 H :    0.025524
  14 H :    0.151175
  15 H :    0.000106
Sum of atomic charges:    0.0000000

LOEWDIN ATOMIC CHARGES
----------------------
   0 N :   -0.082879
   1 C :   -0.007509
   2 C :   -0.067517
   3 C :    0.053611
   4 O :   -0.121401
   5 C :   -0.016403
   6 C :   -0.077788
   7 H :    0.051151
   8 H :    0.054409
   9 H :    0.041442
  10 H :    0.026593
  11 H :    0.014634
  12 H :    0.003976
  13 H :    0.025867
  14 H :    0.065807
  15 H :    0.036006

  Mayer bond orders larger than 0.1
B(  0-N ,  1-C ) :   1.0880 B(  0-N ,  7-H ) :   0.9643 B(  0-N ,  8-H ) :   0.9657
B(  1-C ,  2-C ) :   1.0191 B(  1-C ,  5-C ) :   1.0045 B(  1-C ,  9-H ) :   0.8664
B(  2-C ,  3-C ) :   1.0550 B(  2-C , 10-H ) :   0.9185 B(  2-C , 11-H ) :   0.9180
B(  3-C ,  4-O ) :   1.0539 B(  3-C , 12-H ) :   0.9352 B(  3-C , 13-H ) :   0.9337
B(  4-O , 14-H ) :   0.9864 B(  5-C ,  6-C ) :   2.3313 B(  5-C , 15-H ) :  -0.1137
B(  6-C , 15-H ) :   1.1041

FINAL SINGLE POINT ENERGY      -325.179185863508

DIPOLE MOMENT
-------------
                                X             Y             Z
Electronic contribution:      0.98363      -2.02569       0.79929
Nuclear contribution   :     -1.36139       2.56883      -1.10370
                        -----------------------------------------
Total Dipole Moment    :     -0.37776       0.54314      -0.30441
                        -----------------------------------------
Magnitude (a.u.)       :      0.72826
Magnitude (Debye)      :      1.85110

                             ****ORCA TERMINATED NORMALLY****
TOTAL RUN TIME: 0 days 0 hours 0 minutes 6 seconds 891 msec
