                         Program Version 3.0.3 - RELEASE   -
|  1> ! RI PBE def2-SVP def2-SVP/J NBO PAL2
|  2> % maxcore 2000
|  3> % output
|  4>     # printlevel mini
|  5>     print[ P_Basis ] 0
|  6>     print[ P_SCFInfo ] 1
|  7>     print[ P_SCFIterInfo ] 1
|  8>     print[ P_OrbEn ] 0
|  9>     print[ P_Cartesian ] 0
| 10> end
| 11> *xyz 0 1
| 12>  N        2.9885550000    -0.7850890000    -1.9492390000
| 13>  C        3.6083480000    -0.7134710000    -0.6326460000
| 14>  C        3.0853670000     0.4577970000     0.1256850000
| 15>  C        3.8747200000     1.4142510000     0.5928340000
| 16>  O        3.3901220000     2.4746420000     1.2897930000
| 17>  C        4.2697300000     3.4139180000     1.7128150000
| 18>  C        3.8858800000     4.4858110000     2.3876740000
| 19>  H        3.2979660000    -1.6094030000    -2.4487040000
| 20>  H        3.2467540000     0.0231570000    -2.5018950000
| 21>  H        4.7091470000    -0.6671460000    -0.6522480000
| 22>  H        3.3460880000    -1.6358210000    -0.1010990000
| 23>  H        2.0124780000     0.5238220000     0.2767970000
| 24>  H        4.9542510000     1.4017980000     0.4531130000
| 25>  H        5.3096600000     3.2213700000     1.4583590000
| 26>  H        2.8457960000     4.6601520000     2.6309850000
| 27>  H        4.6257470000     5.2061020000     2.7052770000
| 28> *
| 29>
| 30>                          ****END OF INPUT****
 Total Charge           Charge          ....    0
 Multiplicity           Mult            ....    1
 Number of Electrons    NEL             ....   54
 Basis Dimension        Dim             ....  143

MULLIKEN ATOMIC CHARGES
-----------------------
   0 N :   -0.222937
   1 C :    0.119940
   2 C :   -0.104665
   3 C :    0.120423
   4 O :   -0.189871
   5 C :    0.097251
   6 C :   -0.071955
   7 H :    0.086254
   8 H :    0.087431
   9 H :   -0.009213
  10 H :    0.014669
  11 H :    0.012910
  12 H :   -0.006636
  13 H :    0.003229
  14 H :    0.032469
  15 H :    0.030700
Sum of atomic charges:   -0.0000000

LOEWDIN ATOMIC CHARGES
----------------------
   0 N :   -0.112969
   1 C :    0.009315
   2 C :   -0.082969
   3 C :    0.024042
   4 O :   -0.011675
   5 C :    0.035634
   6 C :   -0.115264
   7 H :    0.050677
   8 H :    0.049382
   9 H :    0.001556
  10 H :    0.027874
  11 H :    0.033762
  12 H :    0.010566
  13 H :    0.014082
  14 H :    0.031923
  15 H :    0.034063

  Mayer bond orders larger than 0.1
B(  0-N ,  1-C ) :   1.0539 B(  0-N ,  7-H ) :   0.9646 B(  0-N ,  8-H ) :   0.9706
B(  1-C ,  2-C ) :   1.0774 B(  1-C ,  9-H ) :   0.9260 B(  1-C , 10-H ) :   0.9153
B(  2-C ,  3-C ) :   1.8000 B(  2-C , 11-H ) :   0.9642 B(  3-C ,  4-O ) :   1.0738
B(  3-C , 12-H ) :   0.9452 B(  4-O ,  5-C ) :   1.0821 B(  5-C ,  6-C ) :   1.9319
B(  5-C , 13-H ) :   0.9445 B(  6-C , 14-H ) :   0.9477 B(  6-C , 15-H ) :   0.9349

FINAL SINGLE POINT ENERGY      -325.209832170461

DIPOLE MOMENT
-------------
                                X             Y             Z
Electronic contribution:     -1.07636       2.06812       1.86651
Nuclear contribution   :      1.92877      -2.21938      -2.16410
                        -----------------------------------------
Total Dipole Moment    :      0.85241      -0.15126      -0.29759
                        -----------------------------------------
Magnitude (a.u.)       :      0.91545
Magnitude (Debye)      :      2.32688

                             ****ORCA TERMINATED NORMALLY****
TOTAL RUN TIME: 0 days 0 hours 0 minutes 6 seconds 965 msec
