                         Program Version 3.0.3 - RELEASE   -
|  1> ! RI PBE def2-SVP def2-SVP/J NBO PAL2
|  2> % maxcore 2000
|  3> % output
|  4>     # printlevel mini
|  5>     print[ P_Basis ] 0
|  6>     print[ P_SCFInfo ] 1
|  7>     print[ P_SCFIterInfo ] 1
|  8>     print[ P_OrbEn ] 0
|  9>     print[ P_Cartesian ] 0
| 10> end
| 11> *xyz 0 1
| 12>  N        0.8074270000     0.3143560000    -0.4177300000
| 13>  C        2.2233940000     0.1003830000    -0.2094830000
| 14>  C        2.7600520000     0.9030280000     0.9356060000
| 15>  C        2.0319480000     1.5830490000     1.8135120000
| 16>  O        4.1255690000     0.8518100000     0.9237990000
| 17>  C        4.7965270000     1.1347570000     2.0711260000
| 18>  C        6.0211970000     1.6348180000     2.0582860000
| 19>  H        0.4467940000    -0.3433190000    -1.0952730000
| 20>  H        0.6377460000     1.2458600000    -0.7766220000
| 21>  H        2.8575360000     0.3267760000    -1.0809550000
| 22>  H        2.3884900000    -0.9599110000     0.0135130000
| 23>  H        0.9551940000     1.5257380000     1.7456830000
| 24>  H        2.4776300000     2.1919900000     2.5880850000
| 25>  H        4.2668530000     0.8720420000     2.9830200000
| 26>  H        6.5163250000     1.8964810000     1.1317980000
| 27>  H        6.5508180000     1.7738510000     2.9902440000
| 28> *
| 29>
| 30>                          ****END OF INPUT****
 Total Charge           Charge          ....    0
 Multiplicity           Mult            ....    1
 Number of Electrons    NEL             ....   54
 Basis Dimension        Dim             ....  143

MULLIKEN ATOMIC CHARGES
-----------------------
   0 N :   -0.209559
   1 C :    0.143235
   2 C :   -0.011930
   3 C :   -0.084715
   4 O :   -0.219397
   5 C :    0.092966
   6 C :   -0.061244
   7 H :    0.094981
   8 H :    0.095828
   9 H :    0.009861
  10 H :    0.029494
  11 H :    0.023716
  12 H :    0.022888
  13 H :    0.013392
  14 H :    0.030431
  15 H :    0.030054
Sum of atomic charges:    0.0000000

LOEWDIN ATOMIC CHARGES
----------------------
   0 N :   -0.097595
   1 C :    0.002073
   2 C :    0.022110
   3 C :   -0.136947
   4 O :   -0.025081
   5 C :    0.042306
   6 C :   -0.107203
   7 H :    0.057477
   8 H :    0.055146
   9 H :    0.013444
  10 H :    0.036845
  11 H :    0.030891
  12 H :    0.025752
  13 H :    0.017289
  14 H :    0.030307
  15 H :    0.033185

  Mayer bond orders larger than 0.1
B(  0-N ,  1-C ) :   1.1132 B(  0-N ,  7-H ) :   0.9620 B(  0-N ,  8-H ) :   0.9660
B(  1-C ,  2-C ) :   1.0045 B(  1-C ,  9-H ) :   0.9121 B(  1-C , 10-H ) :   0.9103
B(  2-C ,  3-C ) :   1.9081 B(  2-C ,  4-O ) :   1.0710 B(  3-C , 11-H ) :   0.9032
B(  3-C , 12-H ) :   0.9289 B(  4-O ,  5-C ) :   1.0706 B(  5-C ,  6-C ) :   1.9419
B(  5-C , 13-H ) :   0.9390 B(  6-C , 14-H ) :   0.9484 B(  6-C , 15-H ) :   0.9389

FINAL SINGLE POINT ENERGY      -325.213790838882

DIPOLE MOMENT
-------------
                                X             Y             Z
Electronic contribution:      1.56024      -0.34043      -0.07319
Nuclear contribution   :     -1.73317       0.25040      -0.34745
                        -----------------------------------------
Total Dipole Moment    :     -0.17293      -0.09003      -0.42064
                        -----------------------------------------
Magnitude (a.u.)       :      0.46362
Magnitude (Debye)      :      1.17844

                             ****ORCA TERMINATED NORMALLY****
TOTAL RUN TIME: 0 days 0 hours 0 minutes 7 seconds 394 msec
