                         Program Version 3.0.3 - RELEASE   -
|  1> ! RI PBE def2-SVP def2-SVP/J NBO PAL2
|  2> % maxcore 2000
|  3> % output
|  4>     # printlevel mini
|  5>     print[ P_Basis ] 0
|  6>     print[ P_SCFInfo ] 1
|  7>     print[ P_SCFIterInfo ] 1
|  8>     print[ P_OrbEn ] 0
|  9>     print[ P_Cartesian ] 0
| 10> end
| 11> *xyz 0 1
| 12>  N        1.0030330000    -0.1265510000     0.0765550000
| 13>  C        2.4338630000     0.1518040000    -0.0541720000
| 14>  C        3.0032820000    -0.4010000000    -1.3636310000
| 15>  C        2.3045050000     0.2048470000    -2.5875610000
| 16>  O        0.9522490000    -0.1499480000    -2.6922390000
| 17>  C        4.4731110000    -0.1343420000    -1.4245710000
| 18>  C        5.4193900000    -1.0610470000    -1.4761050000
| 19>  H        0.6039730000     0.3943890000     0.8466780000
| 20>  H        0.8497050000    -1.1093390000     0.2705230000
| 21>  H        3.0248370000    -0.2378460000     0.7858970000
| 22>  H        2.5609250000     1.2399710000    -0.0527540000
| 23>  H        2.8393320000    -1.4860500000    -1.3894880000
| 24>  H        2.8043740000    -0.1458510000    -3.4947550000
| 25>  H        2.4309980000     1.3008960000    -2.5529770000
| 26>  H        0.5803010000    -0.0293900000    -1.8004500000
| 27>  H        4.7644390000     0.9161380000    -1.4323530000
| 28>  H        5.1768560000    -2.1194880000    -1.4735180000
| 29>  H        6.4697160000    -0.7979920000    -1.5267100000
| 30> *
| 31>
| 32>                          ****END OF INPUT****
 Total Charge           Charge          ....    0
 Multiplicity           Mult            ....    1
 Number of Electrons    NEL             ....   56
 Basis Dimension        Dim             ....  153

MULLIKEN ATOMIC CHARGES
-----------------------
   0 N :   -0.211584
   1 C :    0.086587
   2 C :   -0.117972
   3 C :    0.228406
   4 O :   -0.292144
   5 C :   -0.048437
   6 C :   -0.032792
   7 H :    0.105662
   8 H :    0.107903
   9 H :    0.008920
  10 H :    0.009792
  11 H :   -0.001551
  12 H :    0.004771
  13 H :   -0.022768
  14 H :    0.129350
  15 H :    0.000640
  16 H :    0.019913
  17 H :    0.025306
Sum of atomic charges:   -0.0000000

LOEWDIN ATOMIC CHARGES
----------------------
   0 N :   -0.070950
   1 C :    0.014039
   2 C :   -0.071125
   3 C :    0.063074
   4 O :   -0.135692
   5 C :   -0.019814
   6 C :   -0.062844
   7 H :    0.060819
   8 H :    0.060278
   9 H :    0.007823
  10 H :    0.021968
  11 H :    0.025745
  12 H :    0.017033
  13 H :   -0.003651
  14 H :    0.021781
  15 H :    0.024264
  16 H :    0.022364
  17 H :    0.024888

  Mayer bond orders larger than 0.1
B(  0-N ,  1-C ) :   1.0707 B(  0-N ,  7-H ) :   0.9601 B(  0-N ,  8-H ) :   0.9611
B(  0-N , 14-H ) :   0.1621 B(  1-C ,  2-C ) :   1.0320 B(  1-C ,  9-H ) :   0.9407
B(  1-C , 10-H ) :   0.9308 B(  2-C ,  3-C ) :   1.0076 B(  2-C ,  5-C ) :   1.0144
B(  2-C , 11-H ) :   0.9007 B(  3-C ,  4-O ) :   1.1077 B(  3-C , 12-H ) :   0.9402
B(  3-C , 13-H ) :   0.9190 B(  4-O , 14-H ) :   0.9320 B(  5-C ,  6-C ) :   2.0051
B(  5-C , 15-H ) :   0.9517 B(  6-C , 16-H ) :   0.9486 B(  6-C , 17-H ) :   0.9422

FINAL SINGLE POINT ENERGY      -326.434440635028

DIPOLE MOMENT
-------------
                                X             Y             Z
Electronic contribution:     -1.96689      -0.18933      -1.58264
Nuclear contribution   :      2.18594       0.21323       2.86272
                        -----------------------------------------
Total Dipole Moment    :      0.21906       0.02391       1.28008
                        -----------------------------------------
Magnitude (a.u.)       :      1.29891
Magnitude (Debye)      :      3.30156

                             ****ORCA TERMINATED NORMALLY****
TOTAL RUN TIME: 0 days 0 hours 0 minutes 7 seconds 927 msec
