                         Program Version 3.0.3 - RELEASE   -
|  1> ! RI PBE def2-SVP def2-SVP/J NBO PAL2
|  2> % maxcore 2000
|  3> % output
|  4>     # printlevel mini
|  5>     print[ P_Basis ] 0
|  6>     print[ P_SCFInfo ] 1
|  7>     print[ P_SCFIterInfo ] 1
|  8>     print[ P_OrbEn ] 0
|  9>     print[ P_Cartesian ] 0
| 10> end
| 11> *xyz 0 1
| 12>  N        0.9226640000    -0.0652020000     0.0260380000
| 13>  C        2.3835750000    -0.0759140000    -0.0144860000
| 14>  C        2.8956330000    -0.5291270000    -1.3886430000
| 15>  C        2.4054400000     0.3870690000    -2.5235050000
| 16>  O        1.0242800000     0.2936260000    -2.7287350000
| 17>  C        4.3484260000    -0.5923690000    -1.3751620000
| 18>  C        5.5491680000    -0.6102680000    -1.3647930000
| 19>  H        0.5905220000     0.4471850000     0.8325010000
| 20>  H        0.5585560000    -1.0079050000     0.1006890000
| 21>  H        2.8358300000    -0.7055550000     0.7620730000
| 22>  H        2.7348010000     0.9452860000     0.1583100000
| 23>  H        2.5057390000    -1.5352660000    -1.5948120000
| 24>  H        2.8986540000     0.0987530000    -3.4544930000
| 25>  H        2.7184570000     1.4176940000    -2.2928330000
| 26>  H        0.6221360000     0.3646000000    -1.8449930000
| 27>  H        6.6131480000    -0.6358160000    -1.3612190000
| 28> *
| 29>
| 30>                          ****END OF INPUT****
 Total Charge           Charge          ....    0
 Multiplicity           Mult            ....    1
 Number of Electrons    NEL             ....   54
 Basis Dimension        Dim             ....  143

MULLIKEN ATOMIC CHARGES
-----------------------
   0 N :   -0.207105
   1 C :    0.076752
   2 C :   -0.102118
   3 C :    0.224980
   4 O :   -0.286598
   5 C :    0.423918
   6 C :   -0.535944
   7 H :    0.108452
   8 H :    0.109375
   9 H :    0.020964
  10 H :    0.019038
  11 H :    0.021201
  12 H :    0.014635
  13 H :   -0.012665
  14 H :    0.129856
  15 H :   -0.004740
Sum of atomic charges:   -0.0000000

LOEWDIN ATOMIC CHARGES
----------------------
   0 N :   -0.070823
   1 C :    0.021700
   2 C :   -0.077155
   3 C :    0.071051
   4 O :   -0.130973
   5 C :   -0.011777
   6 C :   -0.089740
   7 H :    0.062937
   8 H :    0.061460
   9 H :    0.012826
  10 H :    0.026949
  11 H :    0.042553
  12 H :    0.021509
  13 H :    0.002091
  14 H :    0.023373
  15 H :    0.034018

  Mayer bond orders larger than 0.1
B(  0-N ,  1-C ) :   1.0818 B(  0-N ,  7-H ) :   0.9602 B(  0-N ,  8-H ) :   0.9598
B(  0-N , 14-H ) :   0.1591 B(  1-C ,  2-C ) :   1.0367 B(  1-C ,  9-H ) :   0.9422
B(  1-C , 10-H ) :   0.9310 B(  2-C ,  3-C ) :   1.0037 B(  2-C ,  5-C ) :   0.9841
B(  2-C , 11-H ) :   0.8585 B(  3-C ,  4-O ) :   1.1101 B(  3-C , 12-H ) :   0.9417
B(  3-C , 13-H ) :   0.9213 B(  4-O , 14-H ) :   0.9322 B(  5-C ,  6-C ) :   2.2944
B(  5-C , 15-H ) :  -0.1236 B(  6-C , 15-H ) :   1.1135

FINAL SINGLE POINT ENERGY      -325.192240844380

DIPOLE MOMENT
-------------
                                X             Y             Z
Electronic contribution:      1.64631      -0.79842      -1.80138
Nuclear contribution   :     -1.69987       0.61703       3.08361
                        -----------------------------------------
Total Dipole Moment    :     -0.05356      -0.18139       1.28223
                        -----------------------------------------
Magnitude (a.u.)       :      1.29610
Magnitude (Debye)      :      3.29442

                             ****ORCA TERMINATED NORMALLY****
TOTAL RUN TIME: 0 days 0 hours 0 minutes 6 seconds 879 msec
