                         Program Version 3.0.3 - RELEASE   -
|  1> ! RI PBE def2-SVP def2-SVP/J NBO PAL2
|  2> % maxcore 2000
|  3> % output
|  4>     # printlevel mini
|  5>     print[ P_Basis ] 0
|  6>     print[ P_SCFInfo ] 1
|  7>     print[ P_SCFIterInfo ] 1
|  8>     print[ P_OrbEn ] 0
|  9>     print[ P_Cartesian ] 0
| 10> end
| 11> *xyz 0 1
| 12>  N        0.8795020000     0.0193770000     0.0819290000
| 13>  C        2.3367350000    -0.0059900000     0.0914980000
| 14>  C        2.8704010000     0.0316530000    -1.3284840000
| 15>  C        4.3874310000     0.0354410000    -1.3927530000
| 16>  O        4.9513280000    -1.1171790000    -0.7729610000
| 17>  C        4.9646590000     0.1845390000    -2.7698070000
| 18>  C        4.2941840000     0.3316270000    -3.9040440000
| 19>  H        0.5204290000     0.0411820000     1.0282530000
| 20>  H        0.5191790000    -0.8271880000    -0.3432850000
| 21>  H        2.7666110000    -0.8705960000     0.6148330000
| 22>  H        2.6827210000     0.8870800000     0.6232810000
| 23>  H        2.4757240000     0.9233700000    -1.8243020000
| 24>  H        2.4905040000    -0.8342060000    -1.8876520000
| 25>  H        4.7573120000     0.8690510000    -0.7816410000
| 26>  H        4.7815850000    -1.8670510000    -1.3516080000
| 27>  H        6.0514400000     0.1339980000    -2.7933130000
| 28>  H        3.2116870000     0.3867480000    -3.9343900000
| 29>  H        4.8123090000     0.4122350000    -4.8527450000
| 30> *
| 31>
| 32>                          ****END OF INPUT****
 Total Charge           Charge          ....    0
 Multiplicity           Mult            ....    1
 Number of Electrons    NEL             ....   56
 Basis Dimension        Dim             ....  153

MULLIKEN ATOMIC CHARGES
-----------------------
   0 N :   -0.198670
   1 C :    0.073181
   2 C :   -0.036228
   3 C :    0.177989
   4 O :   -0.285768
   5 C :   -0.098680
   6 C :   -0.027863
   7 H :    0.085397
   8 H :    0.082650
   9 H :   -0.004245
  10 H :    0.000455
  11 H :    0.020172
  12 H :   -0.004905
  13 H :    0.004665
  14 H :    0.149441
  15 H :    0.011568
  16 H :    0.028883
  17 H :    0.021955
Sum of atomic charges:    0.0000000

LOEWDIN ATOMIC CHARGES
----------------------
   0 N :   -0.113922
   1 C :    0.006665
   2 C :   -0.061685
   3 C :    0.044909
   4 O :   -0.109021
   5 C :   -0.049523
   6 C :   -0.058524
   7 H :    0.051672
   8 H :    0.047527
   9 H :   -0.001381
  10 H :    0.019657
  11 H :    0.030608
  12 H :    0.017118
  13 H :    0.030919
  14 H :    0.065912
  15 H :    0.028369
  16 H :    0.024106
  17 H :    0.026596

  Mayer bond orders larger than 0.1
B(  0-N ,  1-C ) :   1.0969 B(  0-N ,  7-H ) :   0.9648 B(  0-N ,  8-H ) :   0.9678
B(  1-C ,  2-C ) :   1.0885 B(  1-C ,  9-H ) :   0.9294 B(  1-C , 10-H ) :   0.9296
B(  2-C ,  3-C ) :   1.0624 B(  2-C , 11-H ) :   0.9077 B(  2-C , 12-H ) :   0.9142
B(  3-C ,  4-O ) :   0.9844 B(  3-C ,  5-C ) :   1.0204 B(  3-C , 13-H ) :   0.8815
B(  4-O , 14-H ) :   0.9838 B(  5-C ,  6-C ) :   1.9900 B(  5-C , 15-H ) :   0.9564
B(  6-C , 16-H ) :   0.9329 B(  6-C , 17-H ) :   0.9399

FINAL SINGLE POINT ENERGY      -326.427420308722

DIPOLE MOMENT
-------------
                                X             Y             Z
Electronic contribution:      2.93065      -0.88559       0.24043
Nuclear contribution   :     -3.14108       0.45174      -0.38727
                        -----------------------------------------
Total Dipole Moment    :     -0.21043      -0.43385      -0.14684
                        -----------------------------------------
Magnitude (a.u.)       :      0.50405
Magnitude (Debye)      :      1.28120

                             ****ORCA TERMINATED NORMALLY****
TOTAL RUN TIME: 0 days 0 hours 0 minutes 7 seconds 801 msec
