                         Program Version 3.0.3 - RELEASE   -
|  1> ! RI PBE def2-SVP def2-SVP/J NBO PAL2
|  2> % maxcore 2000
|  3> % output
|  4>     # printlevel mini
|  5>     print[ P_Basis ] 0
|  6>     print[ P_SCFInfo ] 1
|  7>     print[ P_SCFIterInfo ] 1
|  8>     print[ P_OrbEn ] 0
|  9>     print[ P_Cartesian ] 0
| 10> end
| 11> *xyz 0 1
| 12>  N        1.1028500000     0.3287620000     0.3076180000
| 13>  C        2.5301520000     0.2052410000     0.0448310000
| 14>  C        3.1159920000    -0.9195390000     0.8772810000
| 15>  C        4.6097070000    -1.1200710000     0.6320380000
| 16>  O        5.3735440000     0.0289180000     0.9595340000
| 17>  C        5.1026880000    -2.3034400000     1.3357380000
| 18>  C        5.5000770000    -3.2561390000     1.9488330000
| 19>  H        0.6953930000     1.0438500000    -0.2817600000
| 20>  H        0.9475690000     0.6204060000     1.2656970000
| 21>  H        3.1023240000     1.1248600000     0.2279390000
| 22>  H        2.6550130000    -0.0380150000    -1.0161260000
| 23>  H        2.5856490000    -1.8496630000     0.6551360000
| 24>  H        2.9641600000    -0.7191780000     1.9453610000
| 25>  H        4.7719990000    -1.2666790000    -0.4420520000
| 26>  H        5.4632210000     0.0597970000     1.9167450000
| 27>  H        5.8576830000    -4.1050990000     2.4823070000
| 28> *
| 29>
| 30>                          ****END OF INPUT****
 Total Charge           Charge          ....    0
 Multiplicity           Mult            ....    1
 Number of Electrons    NEL             ....   54
 Basis Dimension        Dim             ....  143

MULLIKEN ATOMIC CHARGES
-----------------------
   0 N :   -0.205104
   1 C :    0.090572
   2 C :   -0.027298
   3 C :    0.168854
   4 O :   -0.268082
   5 C :    0.377596
   6 C :   -0.508511
   7 H :    0.089233
   8 H :    0.085741
   9 H :   -0.004705
  10 H :    0.001075
  11 H :    0.023274
  12 H :   -0.002660
  13 H :    0.021802
  14 H :    0.155762
  15 H :    0.002452
Sum of atomic charges:   -0.0000000

LOEWDIN ATOMIC CHARGES
----------------------
   0 N :   -0.113611
   1 C :    0.004711
   2 C :   -0.050283
   3 C :    0.039676
   4 O :   -0.098132
   5 C :   -0.035690
   6 C :   -0.074237
   7 H :    0.053221
   8 H :    0.049178
   9 H :   -0.000023
  10 H :    0.020308
  11 H :    0.035129
  12 H :    0.020854
  13 H :    0.042369
  14 H :    0.070157
  15 H :    0.036372

  Mayer bond orders larger than 0.1
B(  0-N ,  1-C ) :   1.0965 B(  0-N ,  7-H ) :   0.9638 B(  0-N ,  8-H ) :   0.9694
B(  1-C ,  2-C ) :   1.0906 B(  1-C ,  9-H ) :   0.9250 B(  1-C , 10-H ) :   0.9275
B(  2-C ,  3-C ) :   1.0271 B(  2-C , 11-H ) :   0.9203 B(  2-C , 12-H ) :   0.9210
B(  3-C ,  4-O ) :   1.0153 B(  3-C ,  5-C ) :   0.9823 B(  3-C , 13-H ) :   0.8674
B(  4-O , 14-H ) :   0.9814 B(  5-C ,  6-C ) :   2.3208 B(  5-C , 15-H ) :  -0.1132
B(  6-C , 15-H ) :   1.1025

FINAL SINGLE POINT ENERGY      -325.182129171887

DIPOLE MOMENT
-------------
                                X             Y             Z
Electronic contribution:      5.03799      -2.51457       1.29818
Nuclear contribution   :     -5.21581       2.78087      -0.87021
                        -----------------------------------------
Total Dipole Moment    :     -0.17782       0.26630       0.42796
                        -----------------------------------------
Magnitude (a.u.)       :      0.53450
Magnitude (Debye)      :      1.35858

                             ****ORCA TERMINATED NORMALLY****
TOTAL RUN TIME: 0 days 0 hours 0 minutes 6 seconds 737 msec
