                         Program Version 3.0.3 - RELEASE   -
|  1> ! RI PBE def2-SVP def2-SVP/J NBO PAL2
|  2> % maxcore 2000
|  3> % output
|  4>     # printlevel mini
|  5>     print[ P_Basis ] 0
|  6>     print[ P_SCFInfo ] 1
|  7>     print[ P_SCFIterInfo ] 1
|  8>     print[ P_OrbEn ] 0
|  9>     print[ P_Cartesian ] 0
| 10> end
| 11> *xyz 0 1
| 12>  N        0.7667080000    -0.9774380000     1.8595140000
| 13>  C        1.7408040000     0.0191680000     1.4529850000
| 14>  C        2.2836350000    -0.1251200000     0.0346450000
| 15>  C        3.2966940000     0.9314670000    -0.3377750000
| 16>  O        4.4471510000     0.7565530000     0.4688460000
| 17>  C        5.4594950000     1.6200920000     0.2810360000
| 18>  C        5.5265740000     2.6356490000    -0.5754250000
| 19>  H       -0.0204570000    -0.9910000000     1.2218230000
| 20>  H        1.1760150000    -1.9036950000     1.8392040000
| 21>  H        2.5717940000    -0.0080540000     2.1622410000
| 22>  H        1.2812610000     1.0082040000     1.5621470000
| 23>  H        1.4549140000    -0.0667510000    -0.6806830000
| 24>  H        2.7390360000    -1.1140760000    -0.0887470000
| 25>  H        2.8899690000     1.9392520000    -0.1758640000
| 26>  H        3.5795820000     0.8515860000    -1.3948140000
| 27>  H        6.2804200000     1.3857430000     0.9508460000
| 28>  H        4.7293160000     2.8986310000    -1.2566730000
| 29>  H        6.4251890000     3.2361100000    -0.5966940000
| 30> *
| 31>
| 32>                          ****END OF INPUT****
 Total Charge           Charge          ....    0
 Multiplicity           Mult            ....    1
 Number of Electrons    NEL             ....   56
 Basis Dimension        Dim             ....  153

MULLIKEN ATOMIC CHARGES
-----------------------
   0 N :   -0.194739
   1 C :    0.037127
   2 C :   -0.021142
   3 C :    0.133956
   4 O :   -0.261908
   5 C :    0.106585
   6 C :   -0.124768
   7 H :    0.085437
   8 H :    0.085643
   9 H :    0.026363
  10 H :    0.006528
  11 H :    0.005126
  12 H :    0.009537
  13 H :    0.015235
  14 H :    0.023202
  15 H :    0.012818
  16 H :    0.029535
  17 H :    0.025464
Sum of atomic charges:   -0.0000000

LOEWDIN ATOMIC CHARGES
----------------------
   0 N :   -0.100052
   1 C :   -0.001725
   2 C :   -0.074447
   3 C :    0.071030
   4 O :   -0.065504
   5 C :    0.031338
   6 C :   -0.160665
   7 H :    0.048237
   8 H :    0.049554
   9 H :    0.024319
  10 H :    0.019616
  11 H :    0.026652
  12 H :    0.024082
  13 H :    0.013779
  14 H :    0.016145
  15 H :    0.023357
  16 H :    0.022168
  17 H :    0.032115

  Mayer bond orders larger than 0.1
B(  0-N ,  1-C ) :   1.1300 B(  0-N ,  7-H ) :   0.9759 B(  0-N ,  8-H ) :   0.9760
B(  1-C ,  2-C ) :   1.0625 B(  1-C ,  9-H ) :   0.9421 B(  1-C , 10-H ) :   0.9415
B(  2-C ,  3-C ) :   1.0665 B(  2-C , 11-H ) :   0.9192 B(  2-C , 12-H ) :   0.9244
B(  3-C ,  4-O ) :   0.9633 B(  3-C , 13-H ) :   0.9286 B(  3-C , 14-H ) :   0.9291
B(  4-O ,  5-C ) :   1.1643 B(  4-O ,  6-C ) :   0.1035 B(  5-C ,  6-C ) :   1.8596
B(  5-C , 15-H ) :   0.9643 B(  6-C , 16-H ) :   0.9524 B(  6-C , 17-H ) :   0.9358

FINAL SINGLE POINT ENERGY      -326.429273559298

DIPOLE MOMENT
-------------
                                X             Y             Z
Electronic contribution:      2.91693      -0.16360       0.92756
Nuclear contribution   :     -3.13129      -0.02806      -1.50399
                        -----------------------------------------
Total Dipole Moment    :     -0.21437      -0.19167      -0.57643
                        -----------------------------------------
Magnitude (a.u.)       :      0.64418
Magnitude (Debye)      :      1.63737

                             ****ORCA TERMINATED NORMALLY****
TOTAL RUN TIME: 0 days 0 hours 0 minutes 7 seconds 616 msec
