                         Program Version 3.0.3 - RELEASE   -
|  1> ! RI PBE def2-SVP def2-SVP/J NBO PAL2
|  2> % maxcore 2000
|  3> % output
|  4>     # printlevel mini
|  5>     print[ P_Basis ] 0
|  6>     print[ P_SCFInfo ] 1
|  7>     print[ P_SCFIterInfo ] 1
|  8>     print[ P_OrbEn ] 0
|  9>     print[ P_Cartesian ] 0
| 10> end
| 11> *xyz 0 1
| 12>  N        0.9441380000     0.0850340000    -0.1538430000
| 13>  C        2.2664580000    -0.0452720000    -0.0119890000
| 14>  C        2.9470220000    -0.8500110000     0.8602260000
| 15>  C        2.2928330000    -1.7331040000     1.8166230000
| 16>  O        2.8561220000    -2.4550990000     2.5989070000
| 17>  C        4.3676220000    -0.8121690000     0.8199830000
| 18>  N        5.5180670000    -0.7662550000     0.7708550000
| 19>  H        0.5722420000     0.7162360000    -0.8379720000
| 20>  H        0.2890710000    -0.4309540000     0.4047650000
| 21>  H        2.8488200000     0.5760340000    -0.6847960000
| 22>  H        1.1802040000    -1.7099900000     1.7907800000
| 23> *
| 24>
| 25>                          ****END OF INPUT****
 Total Charge           Charge          ....    0
 Multiplicity           Mult            ....    1
 Number of Electrons    NEL             ....   50
 Basis Dimension        Dim             ....  118

MULLIKEN ATOMIC CHARGES
-----------------------
   0 N :   -0.017105
   1 C :    0.056294
   2 C :   -0.184805
   3 C :    0.124599
   4 O :   -0.139369
   5 C :   -0.146370
   6 N :    0.057086
   7 H :    0.142187
   8 H :    0.127699
   9 H :    0.035185
  10 H :   -0.055400
Sum of atomic charges:   -0.0000000

LOEWDIN ATOMIC CHARGES
----------------------
   0 N :    0.071177
   1 C :    0.077053
   2 C :   -0.193841
   3 C :    0.066069
   4 O :   -0.108989
   5 C :   -0.038492
   6 N :   -0.066549
   7 H :    0.090322
   8 H :    0.078898
   9 H :    0.047293
  10 H :   -0.022938

  Mayer bond orders larger than 0.1
B(  0-N ,  1-C ) :   1.3967 B(  0-N ,  7-H ) :   0.9476 B(  0-N ,  8-H ) :   0.9464
B(  1-C ,  2-C ) :   1.5234 B(  1-C ,  9-H ) :   0.9436 B(  2-C ,  3-C ) :   1.0253
B(  2-C ,  5-C ) :   1.1423 B(  3-C ,  4-O ) :   2.1782 B(  3-C , 10-H ) :   0.9288
B(  5-C ,  6-N ) :   2.9898

FINAL SINGLE POINT ENERGY      -338.878007598049

DIPOLE MOMENT
-------------
                                X             Y             Z
Electronic contribution:      3.71713      -1.45386       1.57611
Nuclear contribution   :     -6.49241       2.74217      -2.97447
                        -----------------------------------------
Total Dipole Moment    :     -2.77528       1.28830      -1.39835
                        -----------------------------------------
Magnitude (a.u.)       :      3.36412
Magnitude (Debye)      :      8.55092

                             ****ORCA TERMINATED NORMALLY****
TOTAL RUN TIME: 0 days 0 hours 0 minutes 5 seconds 722 msec
