                         Program Version 3.0.3 - RELEASE   -
|  1> ! RI PBE def2-SVP def2-SVP/J NBO PAL2
|  2> % maxcore 2000
|  3> % output
|  4>     # printlevel mini
|  5>     print[ P_Basis ] 0
|  6>     print[ P_SCFInfo ] 1
|  7>     print[ P_SCFIterInfo ] 1
|  8>     print[ P_OrbEn ] 0
|  9>     print[ P_Cartesian ] 0
| 10> end
| 11> *xyz 0 1
| 12>  N        1.0467960000     0.0966290000    -0.0794950000
| 13>  C        2.3837400000    -0.0139390000     0.0935860000
| 14>  C        3.0466260000    -1.0052920000     0.7357940000
| 15>  C        2.3782680000    -2.1749960000     1.3954410000
| 16>  O        2.4570860000    -3.3719750000     0.6483260000
| 17>  C        4.4642440000    -0.9494570000     0.7523360000
| 18>  N        5.6178770000    -0.9167760000     0.7834710000
| 19>  H        0.6683920000     0.9680060000    -0.3998460000
| 20>  H        0.4162740000    -0.5077380000     0.4166870000
| 21>  H        2.9604220000     0.7810410000    -0.3674890000
| 22>  H        1.3300180000    -1.9254500000     1.6169150000
| 23>  H        2.8573760000    -2.3884010000     2.3530110000
| 24>  H        2.3292520000    -3.1570900000    -0.2795150000
| 25> *
| 26>
| 27>                          ****END OF INPUT****
 Total Charge           Charge          ....    0
 Multiplicity           Mult            ....    1
 Number of Electrons    NEL             ....   52
 Basis Dimension        Dim             ....  128

MULLIKEN ATOMIC CHARGES
-----------------------
   0 N :   -0.053783
   1 C :    0.048625
   2 C :   -0.357350
   3 C :    0.309194
   4 O :   -0.269685
   5 C :   -0.127492
   6 N :    0.040520
   7 H :    0.132365
   8 H :    0.116247
   9 H :    0.020382
  10 H :   -0.035123
  11 H :    0.022234
  12 H :    0.153867
Sum of atomic charges:    0.0000000

LOEWDIN ATOMIC CHARGES
----------------------
   0 N :    0.030448
   1 C :    0.042286
   2 C :   -0.186986
   3 C :    0.072360
   4 O :   -0.116740
   5 C :   -0.049772
   6 N :   -0.088915
   7 H :    0.082538
   8 H :    0.073208
   9 H :    0.040962
  10 H :   -0.002162
  11 H :    0.034601
  12 H :    0.068171

  Mayer bond orders larger than 0.1
B(  0-N ,  1-C ) :   1.3221 B(  0-N ,  7-H ) :   0.9499 B(  0-N ,  8-H ) :   0.9517
B(  1-C ,  2-C ) :   1.6431 B(  1-C ,  9-H ) :   0.9411 B(  2-C ,  3-C ) :   1.0643
B(  2-C ,  5-C ) :   1.1781 B(  3-C ,  4-O ) :   1.0991 B(  3-C , 10-H ) :   0.8979
B(  3-C , 11-H ) :   0.9076 B(  4-O , 12-H ) :   0.9787 B(  5-C ,  6-N ) :   2.9745

FINAL SINGLE POINT ENERGY      -340.064991708204

DIPOLE MOMENT
-------------
                                X             Y             Z
Electronic contribution:      4.26058      -0.03668      -0.25917
Nuclear contribution   :     -6.77548       1.10364      -0.27471
                        -----------------------------------------
Total Dipole Moment    :     -2.51490       1.06696      -0.53388
                        -----------------------------------------
Magnitude (a.u.)       :      2.78355
Magnitude (Debye)      :      7.07523

                             ****ORCA TERMINATED NORMALLY****
TOTAL RUN TIME: 0 days 0 hours 0 minutes 6 seconds 243 msec
