                         Program Version 3.0.3 - RELEASE   -
|  1> ! RI PBE def2-SVP def2-SVP/J NBO PAL2
|  2> % maxcore 2000
|  3> % output
|  4>     # printlevel mini
|  5>     print[ P_Basis ] 0
|  6>     print[ P_SCFInfo ] 1
|  7>     print[ P_SCFIterInfo ] 1
|  8>     print[ P_OrbEn ] 0
|  9>     print[ P_Cartesian ] 0
| 10> end
| 11> *xyz 0 1
| 12>  N        0.9466610000    -0.0781430000    -0.0236380000
| 13>  C        2.2809800000    -0.1151370000    -0.1228040000
| 14>  C        3.0329840000     0.5606900000    -1.0255860000
| 15>  C        4.4634030000     0.4597520000    -1.0573180000
| 16>  O        5.2007790000     1.0312420000    -1.8316160000
| 17>  C        5.0694530000    -0.4337520000    -0.0363530000
| 18>  N        5.5487130000    -1.1231940000     0.7501490000
| 19>  H        0.4672830000    -0.6105950000     0.6770660000
| 20>  H        0.3930040000     0.4837240000    -0.6456420000
| 21>  H        2.7719910000    -0.7567360000     0.6042050000
| 22>  H        2.5883490000     1.2124490000    -1.7697620000
| 23> *
| 24>
| 25>                          ****END OF INPUT****
 Total Charge           Charge          ....    0
 Multiplicity           Mult            ....    1
 Number of Electrons    NEL             ....   50
 Basis Dimension        Dim             ....  118

MULLIKEN ATOMIC CHARGES
-----------------------
   0 N :   -0.021286
   1 C :    0.051380
   2 C :   -0.062661
   3 C :    0.055895
   4 O :   -0.149886
   5 C :   -0.195519
   6 N :    0.026960
   7 H :    0.135038
   8 H :    0.127330
   9 H :    0.043565
  10 H :   -0.010817
Sum of atomic charges:   -0.0000000

LOEWDIN ATOMIC CHARGES
----------------------
   0 N :    0.063162
   1 C :    0.053330
   2 C :   -0.134103
   3 C :   -0.000971
   4 O :   -0.120072
   5 C :   -0.061423
   6 N :   -0.049164
   7 H :    0.086104
   8 H :    0.085146
   9 H :    0.042622
  10 H :    0.035370

  Mayer bond orders larger than 0.1
B(  0-N ,  1-C ) :   1.3662 B(  0-N ,  7-H ) :   0.9463 B(  0-N ,  8-H ) :   0.9539
B(  1-C ,  2-C ) :   1.5222 B(  1-C ,  9-H ) :   0.9149 B(  2-C ,  3-C ) :   1.1624
B(  2-C , 10-H ) :   0.9791 B(  3-C ,  4-O ) :   2.0848 B(  3-C ,  5-C ) :   0.8953
B(  5-C ,  6-N ) :   3.0115

FINAL SINGLE POINT ENERGY      -338.878808006935

DIPOLE MOMENT
-------------
                                X             Y             Z
Electronic contribution:      5.22852      -0.09970      -0.44473
Nuclear contribution   :     -8.15972       0.09430       0.76896
                        -----------------------------------------
Total Dipole Moment    :     -2.93120      -0.00540       0.32423
                        -----------------------------------------
Magnitude (a.u.)       :      2.94908
Magnitude (Debye)      :      7.49597

                             ****ORCA TERMINATED NORMALLY****
TOTAL RUN TIME: 0 days 0 hours 0 minutes 5 seconds 221 msec
