                         Program Version 3.0.3 - RELEASE   -
|  1> ! RI PBE def2-SVP def2-SVP/J NBO PAL2
|  2> % maxcore 2000
|  3> % output
|  4>     # printlevel mini
|  5>     print[ P_Basis ] 0
|  6>     print[ P_SCFInfo ] 1
|  7>     print[ P_SCFIterInfo ] 1
|  8>     print[ P_OrbEn ] 0
|  9>     print[ P_Cartesian ] 0
| 10> end
| 11> *xyz 0 1
| 12>  N        1.0705060000    -1.6632850000     0.1074410000
| 13>  C        2.3690200000    -1.0132550000    -0.0240970000
| 14>  C        3.0264290000    -1.4150510000    -1.3308590000
| 15>  C        4.3724390000    -0.7610060000    -1.5517250000
| 16>  O        5.2696680000    -1.1839820000    -0.5505050000
| 17>  C        4.9555380000    -1.0923870000    -2.9188360000
| 18>  N        6.3176820000    -0.5780050000    -2.9892080000
| 19>  H        0.6186260000    -1.3768510000     0.9670930000
| 20>  H        1.1931120000    -2.6676690000     0.1691740000
| 21>  H        3.0609700000    -1.2261030000     0.8016830000
| 22>  H        2.2024550000     0.0696280000    -0.0281620000
| 23>  H        2.3539910000    -1.1616870000    -2.1574070000
| 24>  H        3.1689920000    -2.5028710000    -1.3495750000
| 25>  H        4.2441020000     0.3361370000    -1.4931480000
| 26>  H        6.1480310000    -1.0220790000    -0.9282310000
| 27>  H        4.2919200000    -0.7143660000    -3.7085590000
| 28>  H        5.0014500000    -2.1813770000    -3.0159880000
| 29>  H        6.3251960000     0.4160260000    -3.1812250000
| 30>  H        6.8531620000    -1.0328270000    -3.7151740000
| 31> *
| 32>
| 33>                          ****END OF INPUT****
 Total Charge           Charge          ....    0
 Multiplicity           Mult            ....    1
 Number of Electrons    NEL             ....   58
 Basis Dimension        Dim             ....  158

MULLIKEN ATOMIC CHARGES
-----------------------
   0 N :   -0.206857
   1 C :    0.071001
   2 C :   -0.004076
   3 C :    0.057893
   4 O :   -0.266642
   5 C :    0.064709
   6 N :   -0.212829
   7 H :    0.082798
   8 H :    0.086258
   9 H :    0.006912
  10 H :   -0.000954
  11 H :    0.001680
  12 H :    0.000457
  13 H :   -0.024609
  14 H :    0.135833
  15 H :   -0.002386
  16 H :    0.009835
  17 H :    0.100003
  18 H :    0.100975
Sum of atomic charges:   -0.0000000

LOEWDIN ATOMIC CHARGES
----------------------
   0 N :   -0.117224
   1 C :    0.005706
   2 C :   -0.053524
   3 C :    0.034266
   4 O :   -0.123842
   5 C :   -0.008731
   6 N :   -0.091895
   7 H :    0.050445
   8 H :    0.048630
   9 H :    0.004246
  10 H :    0.018018
  11 H :    0.024995
  12 H :    0.021508
  13 H :   -0.001136
  14 H :    0.043654
  15 H :    0.006326
  16 H :    0.022680
  17 H :    0.057313
  18 H :    0.058564

  Mayer bond orders larger than 0.1
B(  0-N ,  1-C ) :   1.0884 B(  0-N ,  7-H ) :   0.9638 B(  0-N ,  8-H ) :   0.9699
B(  1-C ,  2-C ) :   1.1013 B(  1-C ,  9-H ) :   0.9312 B(  1-C , 10-H ) :   0.9275
B(  2-C ,  3-C ) :   1.0515 B(  2-C , 11-H ) :   0.9198 B(  2-C , 12-H ) :   0.9161
B(  3-C ,  4-O ) :   1.0889 B(  3-C ,  5-C ) :   1.0414 B(  3-C , 13-H ) :   0.8905
B(  4-O , 14-H ) :   0.9416 B(  5-C ,  6-N ) :   1.0944 B(  5-C , 15-H ) :   0.9255
B(  5-C , 16-H ) :   0.9245 B(  6-N , 14-H ) :   0.1165 B(  6-N , 17-H ) :   0.9678
B(  6-N , 18-H ) :   0.9641

FINAL SINGLE POINT ENERGY      -343.674391163912

DIPOLE MOMENT
-------------
                                X             Y             Z
Electronic contribution:      2.12136      -0.00684       1.05755
Nuclear contribution   :     -1.69966       0.16552      -1.73874
                        -----------------------------------------
Total Dipole Moment    :      0.42170       0.15868      -0.68119
                        -----------------------------------------
Magnitude (a.u.)       :      0.81671
Magnitude (Debye)      :      2.07592

                             ****ORCA TERMINATED NORMALLY****
TOTAL RUN TIME: 0 days 0 hours 0 minutes 8 seconds 163 msec
