                         Program Version 3.0.3 - RELEASE   -
|  1> ! RI PBE def2-SVP def2-SVP/J NBO PAL2
|  2> % maxcore 2000
|  3> % output
|  4>     # printlevel mini
|  5>     print[ P_Basis ] 0
|  6>     print[ P_SCFInfo ] 1
|  7>     print[ P_SCFIterInfo ] 1
|  8>     print[ P_OrbEn ] 0
|  9>     print[ P_Cartesian ] 0
| 10> end
| 11> *xyz 0 1
| 12>  N        1.0384620000    -0.0540470000    -0.2387240000
| 13>  C        2.3389080000     0.1412440000    -0.0306720000
| 14>  C        2.9569090000     1.1531560000     0.6519230000
| 15>  C        2.2449960000     2.2385990000     1.2952620000
| 16>  O        2.7566620000     3.1490870000     1.9065860000
| 17>  C        4.4208080000     1.1039960000     0.7153020000
| 18>  O        5.0989510000     0.2370170000     0.2085350000
| 19>  H        0.7225960000    -0.8482030000    -0.7635010000
| 20>  H        0.3398880000     0.5749380000     0.1156130000
| 21>  H        2.9986480000    -0.6079520000    -0.4638550000
| 22>  H        1.1330480000     2.2103400000     1.2054110000
| 23>  H        4.8811250000     1.9373440000     1.2743190000
| 24> *
| 25>
| 26>                          ****END OF INPUT****
 Total Charge           Charge          ....    0
 Multiplicity           Mult            ....    1
 Number of Electrons    NEL             ....   52
 Basis Dimension        Dim             ....  123

MULLIKEN ATOMIC CHARGES
-----------------------
   0 N :   -0.003470
   1 C :    0.032174
   2 C :   -0.137826
   3 C :    0.105805
   4 O :   -0.174261
   5 C :    0.147692
   6 O :   -0.194481
   7 H :    0.140944
   8 H :    0.126352
   9 H :    0.025290
  10 H :   -0.060175
  11 H :   -0.008043
Sum of atomic charges:   -0.0000000

LOEWDIN ATOMIC CHARGES
----------------------
   0 N :    0.079865
   1 C :    0.089934
   2 C :   -0.212388
   3 C :    0.060503
   4 O :   -0.131608
   5 C :    0.088107
   6 O :   -0.146320
   7 H :    0.089040
   8 H :    0.078140
   9 H :    0.035943
  10 H :   -0.027811
  11 H :   -0.003405

  Mayer bond orders larger than 0.1
B(  0-N ,  1-C ) :   1.4199 B(  0-N ,  7-H ) :   0.9480 B(  0-N ,  8-H ) :   0.9428
B(  1-C ,  2-C ) :   1.4848 B(  1-C ,  9-H ) :   0.9149 B(  2-C ,  3-C ) :   1.0461
B(  2-C ,  5-C ) :   1.0321 B(  3-C ,  4-O ) :   2.1193 B(  3-C , 10-H ) :   0.9267
B(  5-C ,  6-O ) :   2.0973 B(  5-C , 11-H ) :   0.9399

FINAL SINGLE POINT ENERGY      -359.935216701805

DIPOLE MOMENT
-------------
                                X             Y             Z
Electronic contribution:      2.35587       1.11826       0.86274
Nuclear contribution   :     -4.45038      -2.24675      -1.71452
                        -----------------------------------------
Total Dipole Moment    :     -2.09451      -1.12849      -0.85178
                        -----------------------------------------
Magnitude (a.u.)       :      2.52705
Magnitude (Debye)      :      6.42326

                             ****ORCA TERMINATED NORMALLY****
TOTAL RUN TIME: 0 days 0 hours 0 minutes 5 seconds 703 msec
