                         Program Version 3.0.3 - RELEASE   -
|  1> ! RI PBE def2-SVP def2-SVP/J NBO PAL2
|  2> % maxcore 2000
|  3> % output
|  4>     # printlevel mini
|  5>     print[ P_Basis ] 0
|  6>     print[ P_SCFInfo ] 1
|  7>     print[ P_SCFIterInfo ] 1
|  8>     print[ P_OrbEn ] 0
|  9>     print[ P_Cartesian ] 0
| 10> end
| 11> *xyz 0 1
| 12>  N        1.0161210000    -0.5277950000     0.0589910000
| 13>  C        2.3135000000    -0.1822280000     0.0074350000
| 14>  C        2.9011550000     0.7780010000     0.7664330000
| 15>  C        2.1438850000     1.5631920000     1.7915110000
| 16>  O        0.8844010000     2.0442620000     1.3210840000
| 17>  C        4.3107210000     1.0153720000     0.5656190000
| 18>  O        4.9784450000     1.8464010000     1.1455690000
| 19>  H        0.6383470000    -1.1716040000    -0.6100740000
| 20>  H        0.3815430000     0.0988350000     0.5319030000
| 21>  H        2.9241630000    -0.7415890000    -0.6975920000
| 22>  H        2.7770100000     2.3805730000     2.1482450000
| 23>  H        1.8983590000     0.9364020000     2.6546990000
| 24>  H        1.0588850000     2.6845460000     0.6255930000
| 25>  H        4.7805640000     0.3544520000    -0.1986950000
| 26> *
| 27>
| 28>                          ****END OF INPUT****
 Total Charge           Charge          ....    0
 Multiplicity           Mult            ....    1
 Number of Electrons    NEL             ....   54
 Basis Dimension        Dim             ....  133

MULLIKEN ATOMIC CHARGES
-----------------------
   0 N :   -0.030611
   1 C :   -0.000319
   2 C :   -0.218147
   3 C :    0.266427
   4 O :   -0.307485
   5 C :    0.105800
   6 O :   -0.204862
   7 H :    0.123067
   8 H :    0.118689
   9 H :    0.003667
  10 H :    0.012422
  11 H :    0.020803
  12 H :    0.160080
  13 H :   -0.049533
Sum of atomic charges:   -0.0000000

LOEWDIN ATOMIC CHARGES
----------------------
   0 N :    0.048767
   1 C :    0.043039
   2 C :   -0.186133
   3 C :    0.066999
   4 O :   -0.123467
   5 C :    0.046586
   6 O :   -0.162886
   7 H :    0.077526
   8 H :    0.066642
   9 H :    0.026667
  10 H :    0.017619
  11 H :    0.027289
  12 H :    0.072848
  13 H :   -0.021497

  Mayer bond orders larger than 0.1
B(  0-N ,  1-C ) :   1.3617 B(  0-N ,  7-H ) :   0.9503 B(  0-N ,  8-H ) :   0.9195
B(  1-C ,  2-C ) :   1.5406 B(  1-C ,  9-H ) :   0.9421 B(  2-C ,  3-C ) :   1.0537
B(  2-C ,  5-C ) :   1.0960 B(  3-C ,  4-O ) :   0.9994 B(  3-C , 10-H ) :   0.9168
B(  3-C , 11-H ) :   0.9227 B(  4-O , 12-H ) :   0.9816 B(  5-C ,  6-O ) :   2.0608
B(  5-C , 13-H ) :   0.9277

FINAL SINGLE POINT ENERGY      -361.129564411996

DIPOLE MOMENT
-------------
                                X             Y             Z
Electronic contribution:      2.02513       1.12318       0.15357
Nuclear contribution   :     -3.50180      -2.05528      -1.16445
                        -----------------------------------------
Total Dipole Moment    :     -1.47667      -0.93210      -1.01088
                        -----------------------------------------
Magnitude (a.u.)       :      2.01773
Magnitude (Debye)      :      5.12866

                             ****ORCA TERMINATED NORMALLY****
TOTAL RUN TIME: 0 days 0 hours 0 minutes 6 seconds 655 msec
