                         Program Version 3.0.3 - RELEASE   -
|  1> ! RI PBE def2-SVP def2-SVP/J NBO PAL2
|  2> % maxcore 2000
|  3> % output
|  4>     # printlevel mini
|  5>     print[ P_Basis ] 0
|  6>     print[ P_SCFInfo ] 1
|  7>     print[ P_SCFIterInfo ] 1
|  8>     print[ P_OrbEn ] 0
|  9>     print[ P_Cartesian ] 0
| 10> end
| 11> *xyz 0 1
| 12>  N        0.5076940000    -0.7389040000     0.1610400000
| 13>  C        1.7261140000    -0.2025640000    -0.0415850000
| 14>  C        2.9066070000    -0.8497280000     0.0595700000
| 15>  C        4.1803850000    -0.2113390000    -0.1618830000
| 16>  O        5.2366120000    -0.8191430000    -0.0672040000
| 17>  C        4.2644300000     1.2682950000    -0.5284960000
| 18>  O        5.5921250000     1.6442350000    -0.6912580000
| 19>  H       -0.3245020000    -0.1989210000     0.0253500000
| 20>  H        0.4034440000    -1.7131200000     0.3805150000
| 21>  H        1.7034840000     0.8513420000    -0.3019580000
| 22>  H        2.9440760000    -1.9035070000     0.3182010000
| 23>  H        3.7877450000     1.8617420000     0.2647270000
| 24>  H        3.6962760000     1.4417400000    -1.4535700000
| 25>  H        6.0912190000     0.8260600000    -0.5159590000
| 26> *
| 27>
| 28>                          ****END OF INPUT****
 Total Charge           Charge          ....    0
 Multiplicity           Mult            ....    1
 Number of Electrons    NEL             ....   54
 Basis Dimension        Dim             ....  133

MULLIKEN ATOMIC CHARGES
-----------------------
   0 N :   -0.043700
   1 C :    0.015266
   2 C :   -0.016631
   3 C :   -0.064720
   4 O :   -0.223930
   5 C :    0.192433
   6 O :   -0.272591
   7 H :    0.126782
   8 H :    0.122316
   9 H :    0.023334
  10 H :   -0.023892
  11 H :    0.012491
  12 H :    0.010100
  13 H :    0.142741
Sum of atomic charges:   -0.0000000

LOEWDIN ATOMIC CHARGES
----------------------
   0 N :    0.043738
   1 C :    0.040241
   2 C :   -0.144378
   3 C :    0.023140
   4 O :   -0.155433
   5 C :    0.016661
   6 O :   -0.127490
   7 H :    0.080419
   8 H :    0.081305
   9 H :    0.034032
  10 H :    0.028660
  11 H :    0.016579
  12 H :    0.015895
  13 H :    0.046631

  Mayer bond orders larger than 0.1
B(  0-N ,  1-C ) :   1.3291 B(  0-N ,  7-H ) :   0.9512 B(  0-N ,  8-H ) :   0.9546
B(  1-C ,  2-C ) :   1.5704 B(  1-C ,  9-H ) :   0.9356 B(  2-C ,  3-C ) :   1.1162
B(  2-C , 10-H ) :   0.9625 B(  3-C ,  4-O ) :   1.9780 B(  3-C ,  5-C ) :   0.9757
B(  4-O , 13-H ) :   0.1273 B(  5-C ,  6-O ) :   1.1611 B(  5-C , 11-H ) :   0.9002
B(  5-C , 12-H ) :   0.9008 B(  6-O , 13-H ) :   0.9334

FINAL SINGLE POINT ENERGY      -361.130437070282

DIPOLE MOMENT
-------------
                                X             Y             Z
Electronic contribution:      3.19221      -1.22693       0.15513
Nuclear contribution   :     -5.90651       0.83490       0.04320
                        -----------------------------------------
Total Dipole Moment    :     -2.71429      -0.39203       0.19833
                        -----------------------------------------
Magnitude (a.u.)       :      2.74962
Magnitude (Debye)      :      6.98898

                             ****ORCA TERMINATED NORMALLY****
TOTAL RUN TIME: 0 days 0 hours 0 minutes 6 seconds 331 msec
