                         Program Version 3.0.3 - RELEASE   -
|  1> ! RI PBE def2-SVP def2-SVP/J NBO PAL2
|  2> % maxcore 2000
|  3> % output
|  4>     # printlevel mini
|  5>     print[ P_Basis ] 0
|  6>     print[ P_SCFInfo ] 1
|  7>     print[ P_SCFIterInfo ] 1
|  8>     print[ P_OrbEn ] 0
|  9>     print[ P_Cartesian ] 0
| 10> end
| 11> *xyz 0 1
| 12>  N        0.7455350000    -0.2530110000    -0.1941710000
| 13>  C        2.0492300000     0.0383580000    -0.0934710000
| 14>  C        3.0531400000    -0.8293860000     0.1734650000
| 15>  C        4.4038670000    -0.3425210000     0.2456750000
| 16>  O        4.7814830000     0.8082320000     0.0898930000
| 17>  C        5.4822390000    -1.3805590000     0.5508110000
| 18>  O        5.2728810000    -2.5476880000     0.7290670000
| 19>  H        0.0708750000     0.4597600000    -0.3959640000
| 20>  H        0.4125210000    -1.1924900000    -0.0697940000
| 21>  H        2.3076040000     1.0832800000    -0.2447480000
| 22>  H        2.8834270000    -1.8870930000     0.3372320000
| 23>  H        6.4983890000    -0.9372610000     0.5918970000
| 24> *
| 25>
| 26>                          ****END OF INPUT****
 Total Charge           Charge          ....    0
 Multiplicity           Mult            ....    1
 Number of Electrons    NEL             ....   52
 Basis Dimension        Dim             ....  123

MULLIKEN ATOMIC CHARGES
-----------------------
   0 N :   -0.029022
   1 C :    0.053539
   2 C :   -0.093339
   3 C :   -0.001395
   4 O :   -0.196091
   5 C :    0.143400
   6 O :   -0.134972
   7 H :    0.133616
   8 H :    0.123878
   9 H :    0.022480
  10 H :   -0.006890
  11 H :   -0.015204
Sum of atomic charges:   -0.0000000

LOEWDIN ATOMIC CHARGES
----------------------
   0 N :    0.060305
   1 C :    0.067303
   2 C :   -0.157186
   3 C :   -0.020089
   4 O :   -0.153911
   5 C :    0.078435
   6 O :   -0.090088
   7 H :    0.082919
   8 H :    0.082305
   9 H :    0.034268
  10 H :    0.024451
  11 H :   -0.008712

  Mayer bond orders larger than 0.1
B(  0-N ,  1-C ) :   1.3561 B(  0-N ,  7-H ) :   0.9518 B(  0-N ,  8-H ) :   0.9511
B(  1-C ,  2-C ) :   1.5676 B(  1-C ,  9-H ) :   0.9324 B(  2-C ,  3-C ) :   1.0966
B(  2-C , 10-H ) :   0.9445 B(  3-C ,  4-O ) :   2.0224 B(  3-C ,  5-C ) :   0.8915
B(  5-C ,  6-O ) :   2.1811 B(  5-C , 11-H ) :   0.9071

FINAL SINGLE POINT ENERGY      -359.929624336692

DIPOLE MOMENT
-------------
                                X             Y             Z
Electronic contribution:      3.63503      -0.57317       0.52306
Nuclear contribution   :     -5.76851       0.70750      -0.79165
                        -----------------------------------------
Total Dipole Moment    :     -2.13348       0.13433      -0.26860
                        -----------------------------------------
Magnitude (a.u.)       :      2.15451
Magnitude (Debye)      :      5.47634

                             ****ORCA TERMINATED NORMALLY****
TOTAL RUN TIME: 0 days 0 hours 0 minutes 5 seconds 460 msec
