                         Program Version 3.0.3 - RELEASE   -
|  1> ! RI PBE def2-SVP def2-SVP/J NBO PAL2
|  2> % maxcore 2000
|  3> % output
|  4>     # printlevel mini
|  5>     print[ P_Basis ] 0
|  6>     print[ P_SCFInfo ] 1
|  7>     print[ P_SCFIterInfo ] 1
|  8>     print[ P_OrbEn ] 0
|  9>     print[ P_Cartesian ] 0
| 10> end
| 11> *xyz 0 1
| 12>  N        1.7162080000    -0.5185550000    -1.2167090000
| 13>  C        2.6845300000    -0.3571880000    -0.1414040000
| 14>  C        2.9250750000     1.0904260000     0.1201260000
| 15>  C        4.1291060000     1.6348790000     0.0676190000
| 16>  O        4.2898160000     2.9789920000     0.3287690000
| 17>  C        5.5280160000     3.4922970000     0.2430790000
| 18>  O        6.5212030000     2.8961660000    -0.0426730000
| 19>  H        1.4786740000    -1.4942320000    -1.3424540000
| 20>  H        2.1025860000    -0.1838560000    -2.0907720000
| 21>  H        3.6484190000    -0.8593820000    -0.3159010000
| 22>  H        2.2525670000    -0.8122780000     0.7574220000
| 23>  H        2.0604880000     1.7083280000     0.3435220000
| 24>  H        5.0435280000     1.1031830000    -0.1646510000
| 25>  H        5.4779920000     4.5631090000     0.4818280000
| 26> *
| 27>
| 28>                          ****END OF INPUT****
 Total Charge           Charge          ....    0
 Multiplicity           Mult            ....    1
 Number of Electrons    NEL             ....   54
 Basis Dimension        Dim             ....  133

MULLIKEN ATOMIC CHARGES
-----------------------
   0 N :   -0.223063
   1 C :    0.129424
   2 C :   -0.078018
   3 C :    0.099085
   4 O :   -0.194470
   5 C :    0.214506
   6 O :   -0.190652
   7 H :    0.091472
   8 H :    0.088258
   9 H :   -0.006035
  10 H :    0.021112
  11 H :    0.014846
  12 H :    0.021952
  13 H :    0.011583
Sum of atomic charges:   -0.0000000

LOEWDIN ATOMIC CHARGES
----------------------
   0 N :   -0.109295
   1 C :    0.011051
   2 C :   -0.055398
   3 C :    0.031006
   4 O :   -0.020433
   5 C :    0.079302
   6 O :   -0.128844
   7 H :    0.053348
   8 H :    0.051152
   9 H :    0.004786
  10 H :    0.032289
  11 H :    0.034089
  12 H :    0.017959
  13 H :   -0.001012

  Mayer bond orders larger than 0.1
B(  0-N ,  1-C ) :   1.0607 B(  0-N ,  7-H ) :   0.9649 B(  0-N ,  8-H ) :   0.9710
B(  1-C ,  2-C ) :   1.0760 B(  1-C ,  9-H ) :   0.9270 B(  1-C , 10-H ) :   0.9138
B(  2-C ,  3-C ) :   1.8249 B(  2-C , 11-H ) :   0.9566 B(  3-C ,  4-O ) :   1.0126
B(  3-C , 12-H ) :   0.9547 B(  4-O ,  5-C ) :   1.1482 B(  5-C ,  6-O ) :   2.0629
B(  5-C , 13-H ) :   0.9390

FINAL SINGLE POINT ENERGY      -361.117607475664

DIPOLE MOMENT
-------------
                                X             Y             Z
Electronic contribution:      5.05705       6.27131       1.34402
Nuclear contribution   :     -5.42184      -6.66523      -1.44893
                        -----------------------------------------
Total Dipole Moment    :     -0.36478      -0.39391      -0.10491
                        -----------------------------------------
Magnitude (a.u.)       :      0.54703
Magnitude (Debye)      :      1.39043

                             ****ORCA TERMINATED NORMALLY****
TOTAL RUN TIME: 0 days 0 hours 0 minutes 6 seconds 356 msec
