                         Program Version 3.0.3 - RELEASE   -
|  1> ! RI PBE def2-SVP def2-SVP/J NBO PAL2
|  2> % maxcore 2000
|  3> % output
|  4>     # printlevel mini
|  5>     print[ P_Basis ] 0
|  6>     print[ P_SCFInfo ] 1
|  7>     print[ P_SCFIterInfo ] 1
|  8>     print[ P_OrbEn ] 0
|  9>     print[ P_Cartesian ] 0
| 10> end
| 11> *xyz 0 1
| 12>  N        0.3769830000     0.0106190000    -0.0059040000
| 13>  C        1.8153650000    -0.0567930000    -0.1330230000
| 14>  C        2.5067170000     1.0554240000     0.6002590000
| 15>  C        1.9209860000     1.9286280000     1.4050570000
| 16>  O        3.8549280000     0.9888150000     0.2764370000
| 17>  C        4.7935380000     1.8367800000     0.7208020000
| 18>  O        4.6507440000     2.7793470000     1.4359020000
| 19>  H       -0.0486280000    -0.8477580000    -0.3266840000
| 20>  H        0.0008860000     0.7665770000    -0.5643000000
| 21>  H        2.1854630000    -0.0396960000    -1.1702880000
| 22>  H        2.1596460000    -1.0067770000     0.2913760000
| 23>  H        0.8575740000     1.8043260000     1.5609390000
| 24>  H        2.4541120000     2.7173670000     1.9078060000
| 25>  H        5.7570970000     1.5122310000     0.3008130000
| 26> *
| 27>
| 28>                          ****END OF INPUT****
 Total Charge           Charge          ....    0
 Multiplicity           Mult            ....    1
 Number of Electrons    NEL             ....   54
 Basis Dimension        Dim             ....  133

MULLIKEN ATOMIC CHARGES
-----------------------
   0 N :   -0.208094
   1 C :    0.143864
   2 C :   -0.035324
   3 C :   -0.030900
   4 O :   -0.214706
   5 C :    0.223509
   6 O :   -0.180684
   7 H :    0.096978
   8 H :    0.099562
   9 H :    0.010918
  10 H :    0.025294
  11 H :    0.021616
  12 H :    0.041733
  13 H :    0.006233
Sum of atomic charges:   -0.0000000

LOEWDIN ATOMIC CHARGES
----------------------
   0 N :   -0.094686
   1 C :    0.003113
   2 C :    0.021754
   3 C :   -0.094741
   4 O :   -0.025834
   5 C :    0.085842
   6 O :   -0.116421
   7 H :    0.058784
   8 H :    0.056655
   9 H :    0.012523
  10 H :    0.036093
  11 H :    0.031054
  12 H :    0.029628
  13 H :   -0.003763

  Mayer bond orders larger than 0.1
B(  0-N ,  1-C ) :   1.1237 B(  0-N ,  7-H ) :   0.9616 B(  0-N ,  8-H ) :   0.9664
B(  1-C ,  2-C ) :   1.0011 B(  1-C ,  9-H ) :   0.9146 B(  1-C , 10-H ) :   0.9113
B(  2-C ,  3-C ) :   1.9727 B(  2-C ,  4-O ) :   0.9965 B(  3-C , 11-H ) :   0.8891
B(  3-C , 12-H ) :   0.9205 B(  4-O ,  5-C ) :   1.1458 B(  5-C ,  6-O ) :   2.0731
B(  5-C , 13-H ) :   0.9337

FINAL SINGLE POINT ENERGY      -361.116890692023

DIPOLE MOMENT
-------------
                                X             Y             Z
Electronic contribution:      5.74099       2.58205       1.16260
Nuclear contribution   :     -6.09977      -3.34737      -2.04774
                        -----------------------------------------
Total Dipole Moment    :     -0.35878      -0.76532      -0.88514
                        -----------------------------------------
Magnitude (a.u.)       :      1.22389
Magnitude (Debye)      :      3.11089

                             ****ORCA TERMINATED NORMALLY****
TOTAL RUN TIME: 0 days 0 hours 0 minutes 6 seconds 505 msec
