                         Program Version 3.0.3 - RELEASE   -
|  1> ! RI PBE def2-SVP def2-SVP/J NBO PAL2
|  2> % maxcore 2000
|  3> % output
|  4>     # printlevel mini
|  5>     print[ P_Basis ] 0
|  6>     print[ P_SCFInfo ] 1
|  7>     print[ P_SCFIterInfo ] 1
|  8>     print[ P_OrbEn ] 0
|  9>     print[ P_Cartesian ] 0
| 10> end
| 11> *xyz 0 1
| 12>  N        1.1489470000     0.1792400000     0.1454180000
| 13>  C        2.6052810000     0.2399970000    -0.0081010000
| 14>  C        3.0588000000    -0.5033750000    -1.2606800000
| 15>  C        2.4976050000     0.1281330000    -2.5322240000
| 16>  O        1.1006550000     0.0423570000    -2.6262750000
| 17>  C        4.5717190000    -0.5633680000    -1.3298010000
| 18>  O        5.0561020000    -1.2925710000    -0.2178420000
| 19>  H        0.8393340000     0.8089970000     0.8745130000
| 20>  H        0.8649800000    -0.7539090000     0.4211780000
| 21>  H        3.1458830000    -0.1514640000     0.8610380000
| 22>  H        2.8817800000     1.2957140000    -0.1133890000
| 23>  H        2.6919930000    -1.5372960000    -1.2086570000
| 24>  H        2.9117900000    -0.3813980000    -3.4091090000
| 25>  H        2.8345800000     1.1784780000    -2.5835890000
| 26>  H        0.7629820000     0.2437190000    -1.7339870000
| 27>  H        4.9832210000     0.4573950000    -1.3356600000
| 28>  H        4.8688450000    -1.0459790000    -2.2706590000
| 29>  H        6.0143940000    -1.3138600000    -0.2591840000
| 30> *
| 31>
| 32>                          ****END OF INPUT****
 Total Charge           Charge          ....    0
 Multiplicity           Mult            ....    1
 Number of Electrons    NEL             ....   58
 Basis Dimension        Dim             ....  153

MULLIKEN ATOMIC CHARGES
-----------------------
   0 N :   -0.212529
   1 C :    0.094305
   2 C :   -0.199111
   3 C :    0.231480
   4 O :   -0.297022
   5 C :    0.184381
   6 O :   -0.271988
   7 H :    0.103650
   8 H :    0.105711
   9 H :    0.014444
  10 H :   -0.001938
  11 H :    0.010361
  12 H :   -0.005830
  13 H :   -0.028112
  14 H :    0.130994
  15 H :   -0.010984
  16 H :   -0.003429
  17 H :    0.155616
Sum of atomic charges:   -0.0000000

LOEWDIN ATOMIC CHARGES
----------------------
   0 N :   -0.070528
   1 C :    0.011859
   2 C :   -0.081427
   3 C :    0.061382
   4 O :   -0.139628
   5 C :    0.065255
   6 O :   -0.125854
   7 H :    0.059509
   8 H :    0.059465
   9 H :    0.007492
  10 H :    0.018913
  11 H :    0.025731
  12 H :    0.011806
  13 H :   -0.005486
  14 H :    0.021873
  15 H :    0.002016
  16 H :    0.005804
  17 H :    0.071819

  Mayer bond orders larger than 0.1
B(  0-N ,  1-C ) :   1.0645 B(  0-N ,  7-H ) :   0.9612 B(  0-N ,  8-H ) :   0.9615
B(  0-N , 14-H ) :   0.1662 B(  1-C ,  2-C ) :   1.0498 B(  1-C ,  9-H ) :   0.9353
B(  1-C , 10-H ) :   0.9282 B(  2-C ,  3-C ) :   1.0274 B(  2-C ,  5-C ) :   1.0476
B(  2-C , 11-H ) :   0.8978 B(  3-C ,  4-O ) :   1.1135 B(  3-C , 12-H ) :   0.9348
B(  3-C , 13-H ) :   0.9142 B(  4-O , 14-H ) :   0.9299 B(  5-C ,  6-O ) :   1.0908
B(  5-C , 15-H ) :   0.9229 B(  5-C , 16-H ) :   0.9330 B(  6-O , 17-H ) :   0.9781

FINAL SINGLE POINT ENERGY      -363.512225239764

DIPOLE MOMENT
-------------
                                X             Y             Z
Electronic contribution:     -0.46634      -1.38822      -0.31048
Nuclear contribution   :      1.26319       1.52535       1.28491
                        -----------------------------------------
Total Dipole Moment    :      0.79685       0.13714       0.97444
                        -----------------------------------------
Magnitude (a.u.)       :      1.26622
Magnitude (Debye)      :      3.21847

                             ****ORCA TERMINATED NORMALLY****
TOTAL RUN TIME: 0 days 0 hours 0 minutes 7 seconds 957 msec
