                         Program Version 3.0.3 - RELEASE   -
|  1> ! RI PBE def2-SVP def2-SVP/J NBO PAL2
|  2> % maxcore 2000
|  3> % output
|  4>     # printlevel mini
|  5>     print[ P_Basis ] 0
|  6>     print[ P_SCFInfo ] 1
|  7>     print[ P_SCFIterInfo ] 1
|  8>     print[ P_OrbEn ] 0
|  9>     print[ P_Cartesian ] 0
| 10> end
| 11> *xyz 0 1
| 12>  N        2.0897230000    -0.6717410000     0.7200300000
| 13>  C        2.5051050000     0.0077130000    -0.4987240000
| 14>  C        3.9530290000     0.4472310000    -0.3806100000
| 15>  C        4.5468040000     1.0125680000    -1.6599510000
| 16>  O        5.9309080000     1.2969000000    -1.4922070000
| 17>  C        3.9335760000     2.3277230000    -2.1047400000
| 18>  O        4.0689030000     3.3330810000    -1.1300330000
| 19>  H        1.1310920000    -0.9874670000     0.6419250000
| 20>  H        2.1211000000    -0.0297790000     1.5036490000
| 21>  H        1.8782340000     0.8761330000    -0.7499660000
| 22>  H        2.4081460000    -0.7027590000    -1.3274060000
| 23>  H        4.0502930000     1.1994480000     0.4094160000
| 24>  H        4.5410080000    -0.4257100000    -0.0715140000
| 25>  H        4.4119750000     0.2853210000    -2.4762330000
| 26>  H        6.3370240000     0.5723900000    -1.0100780000
| 27>  H        2.8656250000     2.2031950000    -2.2947930000
| 28>  H        4.4101040000     2.6256960000    -3.0486260000
| 29>  H        5.0043720000     3.3612680000    -0.9020500000
| 30> *
| 31>
| 32>                          ****END OF INPUT****
 Total Charge           Charge          ....    0
 Multiplicity           Mult            ....    1
 Number of Electrons    NEL             ....   58
 Basis Dimension        Dim             ....  153

MULLIKEN ATOMIC CHARGES
-----------------------
   0 N :   -0.207340
   1 C :    0.039818
   2 C :   -0.004703
   3 C :    0.001568
   4 O :   -0.269604
   5 C :    0.210660
   6 O :   -0.288017
   7 H :    0.087623
   8 H :    0.090290
   9 H :    0.009381
  10 H :    0.005411
  11 H :    0.003812
  12 H :    0.007262
  13 H :   -0.005921
  14 H :    0.157084
  15 H :    0.008376
  16 H :    0.000475
  17 H :    0.153825
Sum of atomic charges:    0.0000000

LOEWDIN ATOMIC CHARGES
----------------------
   0 N :   -0.111546
   1 C :    0.005599
   2 C :   -0.065349
   3 C :    0.024256
   4 O :   -0.116670
   5 C :    0.048826
   6 O :   -0.118690
   7 H :    0.053200
   8 H :    0.051459
   9 H :    0.003420
  10 H :    0.018979
  11 H :    0.019829
  12 H :    0.021983
  13 H :    0.007897
  14 H :    0.068365
  15 H :    0.017986
  16 H :    0.008413
  17 H :    0.062044

  Mayer bond orders larger than 0.1
B(  0-N ,  1-C ) :   1.0932 B(  0-N ,  7-H ) :   0.9627 B(  0-N ,  8-H ) :   0.9706
B(  1-C ,  2-C ) :   1.0802 B(  1-C ,  9-H ) :   0.9290 B(  1-C , 10-H ) :   0.9304
B(  2-C ,  3-C ) :   1.0426 B(  2-C , 11-H ) :   0.9145 B(  2-C , 12-H ) :   0.9177
B(  3-C ,  4-O ) :   1.0594 B(  3-C ,  5-C ) :   1.0361 B(  3-C , 13-H ) :   0.9075
B(  4-O , 14-H ) :   0.9757 B(  5-C ,  6-O ) :   1.0652 B(  5-C , 15-H ) :   0.9320
B(  5-C , 16-H ) :   0.9240 B(  6-O , 17-H ) :   0.9700

FINAL SINGLE POINT ENERGY      -363.510008680677

DIPOLE MOMENT
-------------
                                X             Y             Z
Electronic contribution:      3.17635       2.78094      -0.66118
Nuclear contribution   :     -3.30223      -3.26249       0.77433
                        -----------------------------------------
Total Dipole Moment    :     -0.12588      -0.48155       0.11315
                        -----------------------------------------
Magnitude (a.u.)       :      0.51043
Magnitude (Debye)      :      1.29741

                             ****ORCA TERMINATED NORMALLY****
TOTAL RUN TIME: 0 days 0 hours 0 minutes 7 seconds 319 msec
