                         Program Version 3.0.3 - RELEASE   -
|  1> ! RI PBE def2-SVP def2-SVP/J NBO PAL2
|  2> % maxcore 2000
|  3> % output
|  4>     # printlevel mini
|  5>     print[ P_Basis ] 0
|  6>     print[ P_SCFInfo ] 1
|  7>     print[ P_SCFIterInfo ] 1
|  8>     print[ P_OrbEn ] 0
|  9>     print[ P_Cartesian ] 0
| 10> end
| 11> *xyz 0 1
| 12>  N        0.7146760000    -0.3239370000    -0.3981930000
| 13>  C        2.1519730000    -0.2123200000    -0.2097820000
| 14>  C        2.4628920000     0.2333730000     1.2078010000
| 15>  C        3.9483380000     0.4109440000     1.4269990000
| 16>  O        4.2313850000     0.8786270000     2.7553050000
| 17>  C        4.3563360000    -0.0500340000     3.6982410000
| 18>  O        4.2605530000    -1.2336200000     3.5470710000
| 19>  H        0.4982690000    -0.5881410000    -1.3508880000
| 20>  H        0.3376430000    -1.0494110000     0.2002870000
| 21>  H        2.5249960000     0.5383340000    -0.9152860000
| 22>  H        2.7013740000    -1.1438460000    -0.4222940000
| 23>  H        2.0869100000    -0.5120300000     1.9162470000
| 24>  H        1.9415720000     1.1725940000     1.4113780000
| 25>  H        4.3543280000     1.1822620000     0.7704710000
| 26>  H        4.4875960000    -0.5237120000     1.2599020000
| 27>  H        4.5706690000     0.4404160000     4.6592410000
| 28> *
| 29>
| 30>                          ****END OF INPUT****
 Total Charge           Charge          ....    0
 Multiplicity           Mult            ....    1
 Number of Electrons    NEL             ....   56
 Basis Dimension        Dim             ....  143

MULLIKEN ATOMIC CHARGES
-----------------------
   0 N :   -0.203005
   1 C :    0.040343
   2 C :   -0.047692
   3 C :    0.158860
   4 O :   -0.241020
   5 C :    0.212903
   6 O :   -0.213392
   7 H :    0.088196
   8 H :    0.089896
   9 H :    0.009667
  10 H :   -0.001724
  11 H :    0.024366
  12 H :    0.027977
  13 H :    0.024136
  14 H :    0.025157
  15 H :    0.005332
Sum of atomic charges:    0.0000000

LOEWDIN ATOMIC CHARGES
----------------------
   0 N :   -0.110231
   1 C :    0.008184
   2 C :   -0.059846
   3 C :    0.073324
   4 O :   -0.055936
   5 C :    0.071073
   6 O :   -0.148340
   7 H :    0.053533
   8 H :    0.051446
   9 H :    0.020154
  10 H :    0.000708
  11 H :    0.027915
  12 H :    0.030328
  13 H :    0.024472
  14 H :    0.017877
  15 H :   -0.004662

  Mayer bond orders larger than 0.1
B(  0-N ,  1-C ) :   1.0977 B(  0-N ,  7-H ) :   0.9637 B(  0-N ,  8-H ) :   0.9686
B(  1-C ,  2-C ) :   1.0932 B(  1-C ,  9-H ) :   0.9351 B(  1-C , 10-H ) :   0.9324
B(  2-C ,  3-C ) :   1.0920 B(  2-C , 11-H ) :   0.9284 B(  2-C , 12-H ) :   0.9254
B(  3-C ,  4-O ) :   0.9263 B(  3-C , 13-H ) :   0.9425 B(  3-C , 14-H ) :   0.9292
B(  4-O ,  5-C ) :   1.2096 B(  4-O ,  6-O ) :   0.1070 B(  5-C ,  6-O ) :   2.0245
B(  5-C , 15-H ) :   0.9345

FINAL SINGLE POINT ENERGY      -362.335284672318

DIPOLE MOMENT
-------------
                                X             Y             Z
Electronic contribution:      4.45237       0.05191       6.73960
Nuclear contribution   :     -4.52058       0.04223      -7.34829
                        -----------------------------------------
Total Dipole Moment    :     -0.06822       0.09415      -0.60870
                        -----------------------------------------
Magnitude (a.u.)       :      0.61970
Magnitude (Debye)      :      1.57516

                             ****ORCA TERMINATED NORMALLY****
TOTAL RUN TIME: 0 days 0 hours 0 minutes 6 seconds 724 msec
