                         Program Version 3.0.3 - RELEASE   -
|  1> ! RI PBE def2-SVP def2-SVP/J NBO PAL2
|  2> % maxcore 2000
|  3> % output
|  4>     # printlevel mini
|  5>     print[ P_Basis ] 0
|  6>     print[ P_SCFInfo ] 1
|  7>     print[ P_SCFIterInfo ] 1
|  8>     print[ P_OrbEn ] 0
|  9>     print[ P_Cartesian ] 0
| 10> end
| 11> *xyz 0 1
| 12>  N        0.7552660000     0.1882600000     0.0653000000
| 13>  C        2.1939880000     0.0799970000    -0.1341810000
| 14>  C        2.9316450000     0.6531240000     1.0622910000
| 15>  C        4.4329690000     0.5280790000     0.9744530000
| 16>  O        4.8857950000     1.3531250000    -0.0931090000
| 17>  N        6.2448870000     1.2473620000    -0.2205690000
| 18>  C        6.6971100000     1.9752640000    -1.1508200000
| 19>  H        0.2566170000    -0.2279110000    -0.7111490000
| 20>  H        0.4802320000     1.1632410000     0.0964700000
| 21>  H        2.5548860000     0.5693370000    -1.0498170000
| 22>  H        2.4411080000    -0.9832730000    -0.2259850000
| 23>  H        2.5932350000     0.1368930000     1.9656240000
| 24>  H        2.6707430000     1.7105720000     1.1880220000
| 25>  H        4.7350620000    -0.5075710000     0.7809970000
| 26>  H        4.9086870000     0.8532690000     1.9052190000
| 27>  H        7.7674340000     1.9443440000    -1.3134390000
| 28>  H        6.0598150000     2.6074900000    -1.7678070000
| 29> *
| 30>
| 31>                          ****END OF INPUT****
 Total Charge           Charge          ....    0
 Multiplicity           Mult            ....    1
 Number of Electrons    NEL             ....   56
 Basis Dimension        Dim             ....  148

MULLIKEN ATOMIC CHARGES
-----------------------
   0 N :   -0.208897
   1 C :    0.053884
   2 C :   -0.044415
   3 C :    0.217855
   4 O :   -0.294169
   5 N :   -0.007403
   6 C :   -0.023968
   7 H :    0.087942
   8 H :    0.085853
   9 H :    0.002627
  10 H :    0.002919
  11 H :    0.019908
  12 H :    0.013309
  13 H :    0.005455
  14 H :    0.007429
  15 H :    0.053133
  16 H :    0.028540
Sum of atomic charges:   -0.0000000

LOEWDIN ATOMIC CHARGES
----------------------
   0 N :   -0.114224
   1 C :    0.004454
   2 C :   -0.059921
   3 C :    0.060118
   4 O :   -0.087353
   5 N :    0.011026
   6 C :   -0.050551
   7 H :    0.052600
   8 H :    0.049197
   9 H :    0.000261
  10 H :    0.019348
  11 H :    0.034790
  12 H :    0.025523
  13 H :    0.010827
  14 H :    0.012447
  15 H :    0.026728
  16 H :    0.004730

  Mayer bond orders larger than 0.1
B(  0-N ,  1-C ) :   1.0918 B(  0-N ,  7-H ) :   0.9645 B(  0-N ,  8-H ) :   0.9703
B(  1-C ,  2-C ) :   1.0927 B(  1-C ,  9-H ) :   0.9344 B(  1-C , 10-H ) :   0.9331
B(  2-C ,  3-C ) :   1.0826 B(  2-C , 11-H ) :   0.9212 B(  2-C , 12-H ) :   0.9285
B(  3-C ,  4-O ) :   0.9320 B(  3-C , 13-H ) :   0.9361 B(  3-C , 14-H ) :   0.9387
B(  4-O ,  5-N ) :   0.9786 B(  4-O ,  6-C ) :   0.1235 B(  5-N ,  6-C ) :   1.9396
B(  6-C , 15-H ) :   0.9532 B(  6-C , 16-H ) :   0.9323

FINAL SINGLE POINT ENERGY      -342.413986487983

DIPOLE MOMENT
-------------
                                X             Y             Z
Electronic contribution:      4.79914       1.51180      -0.67123
Nuclear contribution   :     -4.96721      -1.25624       0.23750
                        -----------------------------------------
Total Dipole Moment    :     -0.16807       0.25556      -0.43373
                        -----------------------------------------
Magnitude (a.u.)       :      0.53073
Magnitude (Debye)      :      1.34902

                             ****ORCA TERMINATED NORMALLY****
TOTAL RUN TIME: 0 days 0 hours 0 minutes 7 seconds 667 msec
