                         Program Version 3.0.3 - RELEASE   -
|  1> ! RI PBE def2-SVP def2-SVP/J NBO PAL2
|  2> % maxcore 2000
|  3> % output
|  4>     # printlevel mini
|  5>     print[ P_Basis ] 0
|  6>     print[ P_SCFInfo ] 1
|  7>     print[ P_SCFIterInfo ] 1
|  8>     print[ P_OrbEn ] 0
|  9>     print[ P_Cartesian ] 0
| 10> end
| 11> *xyz 0 1
| 12>  N        0.9745240000    -0.0685330000    -0.2352490000
| 13>  C        2.3959180000    -0.1050880000     0.0877700000
| 14>  C        2.8999650000     1.3226770000     0.2725480000
| 15>  N        2.2622120000     2.0409460000     1.3636540000
| 16>  C        4.3933660000     1.4389510000     0.4424970000
| 17>  C        5.2516460000     0.3722490000     0.9547790000
| 18>  O        5.2251390000     0.6906490000    -0.4275290000
| 19>  H        0.5654420000    -0.9910350000    -0.1676310000
| 20>  H        0.8393040000     0.2416130000    -1.1904150000
| 21>  H        3.0125100000    -0.6190990000    -0.6624370000
| 22>  H        2.5066590000    -0.6448330000     1.0342960000
| 23>  H        2.6567000000     1.8704450000    -0.6502270000
| 24>  H        2.5233290000     1.6159220000     2.2477800000
| 25>  H        1.2589020000     1.9176340000     1.2729420000
| 26>  H        4.7226520000     2.4647680000     0.6023500000
| 27>  H        4.8273310000    -0.5943030000     1.2130290000
| 28>  H        6.1722110000     0.6297570000     1.4728320000
| 29> *
| 30>
| 31>                          ****END OF INPUT****
 Total Charge           Charge          ....    0
 Multiplicity           Mult            ....    1
 Number of Electrons    NEL             ....   56
 Basis Dimension        Dim             ....  148

MULLIKEN ATOMIC CHARGES
-----------------------
   0 N :   -0.197676
   1 C :    0.060206
   2 C :    0.059244
   3 N :   -0.184777
   4 C :   -0.002627
   5 C :    0.140366
   6 O :   -0.288899
   7 H :    0.092153
   8 H :    0.088807
   9 H :    0.006508
  10 H :   -0.009201
  11 H :   -0.000950
  12 H :    0.077913
  13 H :    0.085788
  14 H :    0.019770
  15 H :    0.023053
  16 H :    0.030322
Sum of atomic charges:   -0.0000000

LOEWDIN ATOMIC CHARGES
----------------------
   0 N :   -0.105301
   1 C :   -0.009748
   2 C :   -0.020033
   3 N :   -0.094834
   4 C :    0.039663
   5 C :    0.052294
   6 O :   -0.151981
   7 H :    0.054793
   8 H :    0.052951
   9 H :    0.003319
  10 H :    0.012820
  11 H :    0.026355
  12 H :    0.046997
  13 H :    0.047788
  14 H :    0.017723
  15 H :    0.011125
  16 H :    0.016069

  Mayer bond orders larger than 0.1
B(  0-N ,  1-C ) :   1.1048 B(  0-N ,  7-H ) :   0.9637 B(  0-N ,  8-H ) :   0.9688
B(  1-C ,  2-C ) :   1.0261 B(  1-C ,  9-H ) :   0.9183 B(  1-C , 10-H ) :   0.9110
B(  2-C ,  3-N ) :   1.0790 B(  2-C ,  4-C ) :   0.9956 B(  2-C , 11-H ) :   0.8894
B(  3-N , 12-H ) :   0.9673 B(  3-N , 13-H ) :   0.9500 B(  4-C ,  5-C ) :   1.0848
B(  4-C ,  6-O ) :   0.9776 B(  4-C , 14-H ) :   0.9406 B(  5-C ,  6-O ) :   0.9973
B(  5-C , 15-H ) :   0.9236 B(  5-C , 16-H ) :   0.9386

FINAL SINGLE POINT ENERGY      -342.438655598704

DIPOLE MOMENT
-------------
                                X             Y             Z
Electronic contribution:      3.31766       1.21109      -1.34069
Nuclear contribution   :     -3.72327      -1.91240       1.60217
                        -----------------------------------------
Total Dipole Moment    :     -0.40561      -0.70131       0.26148
                        -----------------------------------------
Magnitude (a.u.)       :      0.85131
Magnitude (Debye)      :      2.16385

                             ****ORCA TERMINATED NORMALLY****
TOTAL RUN TIME: 0 days 0 hours 0 minutes 7 seconds 582 msec
