                         Program Version 3.0.3 - RELEASE   -
|  1> ! RI PBE def2-SVP def2-SVP/J NBO PAL2
|  2> % maxcore 2000
|  3> % output
|  4>     # printlevel mini
|  5>     print[ P_Basis ] 0
|  6>     print[ P_SCFInfo ] 1
|  7>     print[ P_SCFIterInfo ] 1
|  8>     print[ P_OrbEn ] 0
|  9>     print[ P_Cartesian ] 0
| 10> end
| 11> *xyz 0 1
| 12>  N        1.0502390000     0.2468430000    -0.5579010000
| 13>  C        1.8706110000    -0.5676550000     0.3166590000
| 14>  C        2.3151960000     0.1018570000     1.6095620000
| 15>  N        3.1211220000    -0.7904500000     2.4166980000
| 16>  C        3.5875520000    -0.2220600000     3.6685840000
| 17>  C        4.1775160000    -1.3248800000     4.5242970000
| 18>  O        3.2455230000    -2.3560490000     4.7272280000
| 19>  H        0.1912960000     0.5179950000    -0.0951390000
| 20>  H        1.5314630000     1.1002710000    -0.8144290000
| 21>  H        2.7552610000    -0.8865440000    -0.2475300000
| 22>  H        1.3219120000    -1.4815320000     0.5619960000
| 23>  H        1.4305810000     0.3824140000     2.1932440000
| 24>  H        2.8392070000     1.0441650000     1.3649250000
| 25>  H        3.9169600000    -1.1116350000     1.8750470000
| 26>  H        2.7201630000     0.2010540000     4.1856390000
| 27>  H        4.3201010000     0.5912550000     3.5355810000
| 28>  H        4.4635640000    -0.9319510000     5.5032950000
| 29>  H        5.0932700000    -1.7110910000     4.0463030000
| 30>  H        2.7787720000    -2.4391970000     3.8844400000
| 31> *
| 32>
| 33>                          ****END OF INPUT****
 Total Charge           Charge          ....    0
 Multiplicity           Mult            ....    1
 Number of Electrons    NEL             ....   58
 Basis Dimension        Dim             ....  158

MULLIKEN ATOMIC CHARGES
-----------------------
   0 N :   -0.202575
   1 C :    0.043573
   2 C :    0.083564
   3 N :   -0.293013
   4 C :    0.039470
   5 C :    0.186751
   6 O :   -0.289652
   7 H :    0.090467
   8 H :    0.087474
   9 H :    0.007742
  10 H :    0.019382
  11 H :    0.002421
  12 H :   -0.022601
  13 H :    0.105942
  14 H :    0.013762
  15 H :   -0.002515
  16 H :    0.005889
  17 H :   -0.013297
  18 H :    0.137215
Sum of atomic charges:   -0.0000000

LOEWDIN ATOMIC CHARGES
----------------------
   0 N :   -0.096723
   1 C :   -0.007510
   2 C :   -0.011028
   3 N :   -0.096041
   4 C :   -0.009848
   5 C :    0.047957
   6 O :   -0.128805
   7 H :    0.051515
   8 H :    0.049349
   9 H :    0.018460
  10 H :    0.023306
  11 H :    0.017363
  12 H :   -0.005566
  13 H :    0.056398
  14 H :    0.022332
  15 H :    0.004906
  16 H :    0.019645
  17 H :   -0.001477
  18 H :    0.045769

  Mayer bond orders larger than 0.1
B(  0-N ,  1-C ) :   1.1319 B(  0-N ,  7-H ) :   0.9765 B(  0-N ,  8-H ) :   0.9755
B(  1-C ,  2-C ) :   1.0522 B(  1-C ,  9-H ) :   0.9401 B(  1-C , 10-H ) :   0.9375
B(  2-C ,  3-N ) :   1.0157 B(  2-C , 11-H ) :   0.9283 B(  2-C , 12-H ) :   0.9162
B(  3-N ,  4-C ) :   1.0074 B(  3-N , 13-H ) :   0.9362 B(  4-C ,  5-C ) :   1.0834
B(  4-C , 14-H ) :   0.9280 B(  4-C , 15-H ) :   0.9176 B(  5-C ,  6-O ) :   1.0846
B(  5-C , 16-H ) :   0.9334 B(  5-C , 17-H ) :   0.9203 B(  6-O , 18-H ) :   0.9596

FINAL SINGLE POINT ENERGY      -343.663103590394

DIPOLE MOMENT
-------------
                                X             Y             Z
Electronic contribution:      0.01248      -2.64880       2.11397
Nuclear contribution   :      0.22054       3.57330      -2.55441
                        -----------------------------------------
Total Dipole Moment    :      0.23301       0.92450      -0.44044
                        -----------------------------------------
Magnitude (a.u.)       :      1.05023
Magnitude (Debye)      :      2.66947

                             ****ORCA TERMINATED NORMALLY****
TOTAL RUN TIME: 0 days 0 hours 0 minutes 8 seconds 12 msec
