                         Program Version 3.0.3 - RELEASE   -
|  1> ! RI PBE def2-SVP def2-SVP/J NBO PAL2
|  2> % maxcore 2000
|  3> % output
|  4>     # printlevel mini
|  5>     print[ P_Basis ] 0
|  6>     print[ P_SCFInfo ] 1
|  7>     print[ P_SCFIterInfo ] 1
|  8>     print[ P_OrbEn ] 0
|  9>     print[ P_Cartesian ] 0
| 10> end
| 11> *xyz 0 1
| 12>  N        1.6546930000    -0.3880440000     1.1509160000
| 13>  C        2.8202150000     0.0593760000     0.4028310000
| 14>  C        3.0200870000    -0.8131750000    -0.8338720000
| 15>  N        1.8424650000    -0.8407150000    -1.7004970000
| 16>  C        4.2492870000    -0.4061660000    -1.6327620000
| 17>  C        4.5995060000    -1.3852900000    -2.7441410000
| 18>  O        3.6192500000    -1.4640360000    -3.7464630000
| 19>  H        1.3535970000     0.3111760000     1.8160500000
| 20>  H        1.8677670000    -1.2262600000     1.6779400000
| 21>  H        3.7493170000     0.0692390000     0.9930230000
| 22>  H        2.6405710000     1.0897850000     0.0757250000
| 23>  H        3.1735860000    -1.8457850000    -0.4868030000
| 24>  H        1.6823690000     0.0914770000    -2.0726930000
| 25>  H        1.0319470000    -1.0582500000    -1.1287790000
| 26>  H        5.1051110000    -0.3231990000    -0.9535470000
| 27>  H        4.0894400000     0.5895010000    -2.0668790000
| 28>  H        4.7874300000    -2.3755800000    -2.2961320000
| 29>  H        5.5297810000    -1.0739070000    -3.2284640000
| 30>  H        2.7661930000    -1.5127360000    -3.2791460000
| 31> *
| 32>
| 33>                          ****END OF INPUT****
 Total Charge           Charge          ....    0
 Multiplicity           Mult            ....    1
 Number of Electrons    NEL             ....   58
 Basis Dimension        Dim             ....  158

MULLIKEN ATOMIC CHARGES
-----------------------
   0 N :   -0.205672
   1 C :    0.104392
   2 C :   -0.055817
   3 N :   -0.178981
   4 C :   -0.053944
   5 C :    0.244438
   6 O :   -0.306588
   7 H :    0.096842
   8 H :    0.093063
   9 H :   -0.008540
  10 H :   -0.005826
  11 H :   -0.006134
  12 H :    0.092293
  13 H :    0.089582
  14 H :    0.004420
  15 H :    0.002732
  16 H :   -0.027368
  17 H :   -0.006289
  18 H :    0.127397
Sum of atomic charges:   -0.0000000

LOEWDIN ATOMIC CHARGES
----------------------
   0 N :   -0.105572
   1 C :   -0.005701
   2 C :   -0.012676
   3 N :   -0.062786
   4 C :   -0.064479
   5 C :    0.058678
   6 O :   -0.142074
   7 H :    0.056397
   8 H :    0.054137
   9 H :    0.002355
  10 H :    0.017082
  11 H :    0.018349
  12 H :    0.053578
  13 H :    0.048711
  14 H :    0.027960
  15 H :    0.021034
  16 H :   -0.003323
  17 H :    0.014014
  18 H :    0.024316

  Mayer bond orders larger than 0.1
B(  0-N ,  1-C ) :   1.1130 B(  0-N ,  7-H ) :   0.9647 B(  0-N ,  8-H ) :   0.9687
B(  1-C ,  2-C ) :   1.0291 B(  1-C ,  9-H ) :   0.9239 B(  1-C , 10-H ) :   0.9194
B(  2-C ,  3-N ) :   1.0541 B(  2-C ,  4-C ) :   1.0681 B(  2-C , 11-H ) :   0.9054
B(  3-N , 12-H ) :   0.9577 B(  3-N , 13-H ) :   0.9469 B(  3-N , 18-H ) :   0.1624
B(  4-C ,  5-C ) :   1.0793 B(  4-C , 14-H ) :   0.9132 B(  4-C , 15-H ) :   0.9150
B(  5-C ,  6-O ) :   1.0967 B(  5-C , 16-H ) :   0.9171 B(  5-C , 17-H ) :   0.9360
B(  6-O , 18-H ) :   0.9339

FINAL SINGLE POINT ENERGY      -343.679122785250

DIPOLE MOMENT
-------------
                                X             Y             Z
Electronic contribution:     -0.93169      -1.12861      -2.80530
Nuclear contribution   :      0.69405       1.66388       4.44887
                        -----------------------------------------
Total Dipole Moment    :     -0.23764       0.53527       1.64357
                        -----------------------------------------
Magnitude (a.u.)       :      1.74480
Magnitude (Debye)      :      4.43492

                             ****ORCA TERMINATED NORMALLY****
TOTAL RUN TIME: 0 days 0 hours 0 minutes 8 seconds 201 msec
