                         Program Version 3.0.3 - RELEASE   -
|  1> ! RI PBE def2-SVP def2-SVP/J NBO PAL2
|  2> % maxcore 2000
|  3> % output
|  4>     # printlevel mini
|  5>     print[ P_Basis ] 0
|  6>     print[ P_SCFInfo ] 1
|  7>     print[ P_SCFIterInfo ] 1
|  8>     print[ P_OrbEn ] 0
|  9>     print[ P_Cartesian ] 0
| 10> end
| 11> *xyz 0 1
| 12>  N        1.0735390000     0.0677720000    -0.0205170000
| 13>  C        2.5229260000     0.0630100000    -0.0054260000
| 14>  C        3.2044050000     0.9216120000    -1.0498030000
| 15>  N        2.5073950000     1.5411510000    -1.9000720000
| 16>  O        3.2849390000     2.2553540000    -2.7904350000
| 17>  C        3.0306960000     0.4361190000     1.3145640000
| 18>  C        3.4638730000     0.7678360000     2.3826470000
| 19>  H        0.7596110000    -0.0743780000    -0.9742810000
| 20>  H        0.7421860000     0.9876960000     0.2473040000
| 21>  H        2.8534710000    -0.9701270000    -0.1918950000
| 22>  H        4.2942240000     0.9750170000    -1.0537470000
| 23>  H        2.6351830000     2.6748200000    -3.3614540000
| 24>  H        3.8396520000     1.0538290000     3.3366250000
| 25> *
| 26>
| 27>                          ****END OF INPUT****
 Total Charge           Charge          ....    0
 Multiplicity           Mult            ....    1
 Number of Electrons    NEL             ....   52
 Basis Dimension        Dim             ....  128

MULLIKEN ATOMIC CHARGES
-----------------------
   0 N :   -0.152827
   1 C :    0.114712
   2 C :   -0.036642
   3 N :   -0.041776
   4 O :   -0.172522
   5 C :    0.359398
   6 C :   -0.486321
   7 H :    0.093412
   8 H :    0.095699
   9 H :    0.041656
  10 H :    0.009860
  11 H :    0.172710
  12 H :    0.002642
Sum of atomic charges:   -0.0000000

LOEWDIN ATOMIC CHARGES
----------------------
   0 N :   -0.077546
   1 C :   -0.014235
   2 C :   -0.037761
   3 N :   -0.021706
   4 O :   -0.049840
   5 C :   -0.017190
   6 C :   -0.069170
   7 H :    0.053395
   8 H :    0.056626
   9 H :    0.054609
  10 H :    0.011059
  11 H :    0.074645
  12 H :    0.037113

  Mayer bond orders larger than 0.1
B(  0-N ,  1-C ) :   1.1429 B(  0-N ,  7-H ) :   0.9546 B(  0-N ,  8-H ) :   0.9623
B(  1-C ,  2-C ) :   0.9434 B(  1-C ,  5-C ) :   0.9837 B(  1-C ,  9-H ) :   0.8577
B(  2-C ,  3-N ) :   1.9331 B(  2-C ,  4-O ) :   0.1151 B(  2-C , 10-H ) :   0.9432
B(  3-N ,  4-O ) :   0.9960 B(  4-O , 11-H ) :   0.9756 B(  5-C ,  6-C ) :   2.3678
B(  5-C , 12-H ) :  -0.1117 B(  6-C , 12-H ) :   1.1019

FINAL SINGLE POINT ENERGY      -339.958145123530

DIPOLE MOMENT
-------------
                                X             Y             Z
Electronic contribution:      1.02593       1.09925      -0.95373
Nuclear contribution   :     -1.00321      -0.76230       0.48511
                        -----------------------------------------
Total Dipole Moment    :      0.02271       0.33695      -0.46862
                        -----------------------------------------
Magnitude (a.u.)       :      0.57763
Magnitude (Debye)      :      1.46823

                             ****ORCA TERMINATED NORMALLY****
TOTAL RUN TIME: 0 days 0 hours 0 minutes 5 seconds 898 msec
