                         Program Version 3.0.3 - RELEASE   -
|  1> ! RI PBE def2-SVP def2-SVP/J NBO PAL2
|  2> % maxcore 2000
|  3> % output
|  4>     # printlevel mini
|  5>     print[ P_Basis ] 0
|  6>     print[ P_SCFInfo ] 1
|  7>     print[ P_SCFIterInfo ] 1
|  8>     print[ P_OrbEn ] 0
|  9>     print[ P_Cartesian ] 0
| 10> end
| 11> *xyz 0 1
| 12>  N        1.7806670000     0.0294390000    -1.0611580000
| 13>  C        2.0014540000     0.9335170000     0.0499080000
| 14>  C        3.1860450000     0.5941420000     0.9218710000
| 15>  N        2.9486420000     0.2898070000     2.1412570000
| 16>  O        4.0778630000    -0.0296250000     2.8496690000
| 17>  C        4.4826390000     0.6016110000     0.3336320000
| 18>  C        5.5475930000     0.6319000000    -0.2238650000
| 19>  H        2.5766440000     0.0313240000    -1.6876910000
| 20>  H        1.6648010000    -0.9196080000    -0.7268270000
| 21>  H        2.1337880000     1.9434350000    -0.3494020000
| 22>  H        1.1183810000     0.9471950000     0.6915800000
| 23>  H        3.7346510000    -0.2254770000     3.7266280000
| 24>  H        6.5022430000     0.6543310000    -0.6948910000
| 25> *
| 26>
| 27>                          ****END OF INPUT****
 Total Charge           Charge          ....    0
 Multiplicity           Mult            ....    1
 Number of Electrons    NEL             ....   52
 Basis Dimension        Dim             ....  128

MULLIKEN ATOMIC CHARGES
-----------------------
   0 N :   -0.200139
   1 C :    0.174585
   2 C :   -0.215717
   3 N :   -0.017430
   4 O :   -0.151773
   5 C :    0.451536
   6 C :   -0.453982
   7 H :    0.095340
   8 H :    0.090910
   9 H :    0.026015
  10 H :    0.012705
  11 H :    0.176623
  12 H :    0.011328
Sum of atomic charges:   -0.0000000

LOEWDIN ATOMIC CHARGES
----------------------
   0 N :   -0.085975
   1 C :    0.014741
   2 C :   -0.100883
   3 N :   -0.007572
   4 O :   -0.030818
   5 C :   -0.030593
   6 C :   -0.045138
   7 H :    0.053242
   8 H :    0.054257
   9 H :    0.032572
  10 H :    0.029615
  11 H :    0.077596
  12 H :    0.038955

  Mayer bond orders larger than 0.1
B(  0-N ,  1-C ) :   1.1270 B(  0-N ,  7-H ) :   0.9744 B(  0-N ,  8-H ) :   0.9703
B(  1-C ,  2-C ) :   1.0254 B(  1-C ,  9-H ) :   0.9254 B(  1-C , 10-H ) :   0.9136
B(  2-C ,  3-N ) :   1.8441 B(  2-C ,  5-C ) :   0.9324 B(  3-N ,  4-O ) :   1.0393
B(  3-N ,  6-C ) :   0.1052 B(  4-O , 11-H ) :   0.9726 B(  5-C ,  6-C ) :   2.2422
B(  5-C , 12-H ) :  -0.1005 B(  6-C , 12-H ) :   1.0899

FINAL SINGLE POINT ENERGY      -339.969733562177

DIPOLE MOMENT
-------------
                                X             Y             Z
Electronic contribution:      2.80937      -0.24932       3.52756
Nuclear contribution   :     -2.42402      -0.00110      -3.35635
                        -----------------------------------------
Total Dipole Moment    :      0.38535      -0.25042       0.17121
                        -----------------------------------------
Magnitude (a.u.)       :      0.49043
Magnitude (Debye)      :      1.24657

                             ****ORCA TERMINATED NORMALLY****
TOTAL RUN TIME: 0 days 0 hours 0 minutes 6 seconds 126 msec
