                         Program Version 3.0.3 - RELEASE   -
|  1> ! RI PBE def2-SVP def2-SVP/J NBO PAL2
|  2> % maxcore 2000
|  3> % output
|  4>     # printlevel mini
|  5>     print[ P_Basis ] 0
|  6>     print[ P_SCFInfo ] 1
|  7>     print[ P_SCFIterInfo ] 1
|  8>     print[ P_OrbEn ] 0
|  9>     print[ P_Cartesian ] 0
| 10> end
| 11> *xyz 0 1
| 12>  N        3.0360230000     0.3363340000    -1.3721510000
| 13>  C        2.2815420000     0.0548590000    -0.1630410000
| 14>  C        2.7944530000     0.8982450000     0.9760010000
| 15>  O        4.1246060000     0.5071330000     1.2510790000
| 16>  C        4.7311710000     1.2916760000     2.2188350000
| 17>  C        6.2076350000     1.4135350000     2.1477680000
| 18>  C        5.3391820000     2.5998830000     1.8185100000
| 19>  H        2.7146590000    -0.2410460000    -2.1383080000
| 20>  H        4.0109250000     0.1109080000    -1.2152790000
| 21>  H        2.3095760000    -1.0009190000     0.1487790000
| 22>  H        1.2322230000     0.3163320000    -0.3314160000
| 23>  H        2.1668700000     0.7542450000     1.8675580000
| 24>  H        2.7661310000     1.9597910000     0.6974370000
| 25>  H        4.2670980000     1.2279750000     3.2028150000
| 26>  H        6.6910760000     0.9126100000     1.3185870000
| 27>  H        6.7706820000     1.4159440000     3.0724480000
| 28>  H        5.2571360000     2.8698840000     0.7728810000
| 29>  H        5.3007230000     3.4298220000     2.5131770000
| 30> *
| 31>
| 32>                          ****END OF INPUT****
 Total Charge           Charge          ....    0
 Multiplicity           Mult            ....    1
 Number of Electrons    NEL             ....   56
 Basis Dimension        Dim             ....  153

MULLIKEN ATOMIC CHARGES
-----------------------
   0 N :   -0.226764
   1 C :    0.084506
   2 C :    0.157827
   3 O :   -0.319802
   4 C :    0.055627
   5 C :   -0.032072
   6 C :   -0.068888
   7 H :    0.086955
   8 H :    0.092446
   9 H :    0.000720
  10 H :    0.005812
  11 H :   -0.005630
  12 H :    0.000109
  13 H :    0.007249
  14 H :    0.044027
  15 H :    0.034914
  16 H :    0.044578
  17 H :    0.038384
Sum of atomic charges:   -0.0000000

LOEWDIN ATOMIC CHARGES
----------------------
   0 N :   -0.113736
   1 C :   -0.004907
   2 C :    0.058318
   3 O :   -0.129832
   4 C :    0.034894
   5 C :   -0.051885
   6 C :   -0.064321
   7 H :    0.051752
   8 H :    0.048046
   9 H :    0.003604
  10 H :    0.025524
  11 H :    0.006330
  12 H :    0.007551
  13 H :    0.007905
  14 H :    0.032843
  15 H :    0.028748
  16 H :    0.032368
  17 H :    0.026798

  Mayer bond orders larger than 0.1
B(  0-N ,  1-C ) :   1.0861 B(  0-N ,  7-H ) :   0.9677 B(  0-N ,  8-H ) :   0.9645
B(  1-C ,  2-C ) :   1.0922 B(  1-C ,  9-H ) :   0.9207 B(  1-C , 10-H ) :   0.9232
B(  2-C ,  3-O ) :   0.9879 B(  2-C , 11-H ) :   0.9290 B(  2-C , 12-H ) :   0.9190
B(  3-O ,  4-C ) :   1.0716 B(  4-C ,  5-C ) :   1.0003 B(  4-C ,  6-C ) :   0.9989
B(  4-C , 13-H ) :   0.9328 B(  5-C ,  6-C ) :   1.0349 B(  5-C , 14-H ) :   0.9457
B(  5-C , 15-H ) :   0.9417 B(  6-C , 16-H ) :   0.9411 B(  6-C , 17-H ) :   0.9456

FINAL SINGLE POINT ENERGY      -326.417288667666

DIPOLE MOMENT
-------------
                                X             Y             Z
Electronic contribution:      0.79459      -0.98718       0.53848
Nuclear contribution   :     -0.91778       0.83156      -0.38805
                        -----------------------------------------
Total Dipole Moment    :     -0.12319      -0.15562       0.15043
                        -----------------------------------------
Magnitude (a.u.)       :      0.24904
Magnitude (Debye)      :      0.63301

                             ****ORCA TERMINATED NORMALLY****
TOTAL RUN TIME: 0 days 0 hours 0 minutes 7 seconds 454 msec
