                         Program Version 3.0.3 - RELEASE   -
|  1> ! RI PBE def2-SVP def2-SVP/J NBO PAL2
|  2> % maxcore 2000
|  3> % output
|  4>     # printlevel mini
|  5>     print[ P_Basis ] 0
|  6>     print[ P_SCFInfo ] 1
|  7>     print[ P_SCFIterInfo ] 1
|  8>     print[ P_OrbEn ] 0
|  9>     print[ P_Cartesian ] 0
| 10> end
| 11> *xyz 0 1
| 12>  N        1.4802730000     1.0181510000    -0.3135640000
| 13>  C        2.4135430000     0.7070130000     0.2787840000
| 14>  C        3.5730410000     0.3063400000     1.0683310000
| 15>  O        4.7275520000     0.3896660000     0.2782660000
| 16>  C        5.8725040000     0.0639310000     1.0022470000
| 17>  C        7.1319670000     0.6976860000     0.5505550000
| 18>  C        6.5095240000     1.1148460000     1.8571190000
| 19>  H        3.4056380000    -0.7180240000     1.4313650000
| 20>  H        3.6399100000     0.9620240000     1.9475110000
| 21>  H        5.9019810000    -0.9689580000     1.3457810000
| 22>  H        7.0489050000     1.3915670000    -0.2759990000
| 23>  H        8.0374190000     0.1050440000     0.5654300000
| 24>  H        6.0305530000     2.0862770000     1.8775230000
| 25>  H        6.9821790000     0.8156260000     2.7841710000
| 26> *
| 27>
| 28>                          ****END OF INPUT****
 Total Charge           Charge          ....    0
 Multiplicity           Mult            ....    1
 Number of Electrons    NEL             ....   52
 Basis Dimension        Dim             ....  133

MULLIKEN ATOMIC CHARGES
-----------------------
   0 N :    0.050942
   1 C :   -0.230338
   2 C :    0.238275
   3 O :   -0.298159
   4 C :    0.044420
   5 C :   -0.025463
   6 C :   -0.062017
   7 H :    0.036360
   8 H :    0.040762
   9 H :    0.015013
  10 H :    0.056899
  11 H :    0.042243
  12 H :    0.049887
  13 H :    0.041176
Sum of atomic charges:   -0.0000000

LOEWDIN ATOMIC CHARGES
----------------------
   0 N :   -0.043317
   1 C :   -0.047033
   2 C :    0.048116
   3 O :   -0.112187
   4 C :    0.034087
   5 C :   -0.042585
   6 C :   -0.060213
   7 H :    0.037751
   8 H :    0.037455
   9 H :    0.012119
  10 H :    0.039238
  11 H :    0.032904
  12 H :    0.034115
  13 H :    0.029549

  Mayer bond orders larger than 0.1
B(  0-N ,  1-C ) :   3.0615 B(  1-C ,  2-C ) :   1.0899 B(  2-C ,  3-O ) :   1.0617
B(  2-C ,  7-H ) :   0.9029 B(  2-C ,  8-H ) :   0.9006 B(  3-O ,  4-C ) :   1.0471
B(  4-C ,  5-C ) :   1.0015 B(  4-C ,  6-C ) :   1.0017 B(  4-C ,  9-H ) :   0.9310
B(  5-C ,  6-C ) :   1.0396 B(  5-C , 10-H ) :   0.9455 B(  5-C , 11-H ) :   0.9406
B(  6-C , 12-H ) :   0.9397 B(  6-C , 13-H ) :   0.9447

FINAL SINGLE POINT ENERGY      -324.005426597116

DIPOLE MOMENT
-------------
                                X             Y             Z
Electronic contribution:     -7.25909       0.11377      -3.40634
Nuclear contribution   :      8.46788      -0.53797       4.53871
                        -----------------------------------------
Total Dipole Moment    :      1.20879      -0.42420       1.13237
                        -----------------------------------------
Magnitude (a.u.)       :      1.70979
Magnitude (Debye)      :      4.34594

                             ****ORCA TERMINATED NORMALLY****
TOTAL RUN TIME: 0 days 0 hours 0 minutes 6 seconds 263 msec
