                         Program Version 3.0.3 - RELEASE   -
|  1> ! RI PBE def2-SVP def2-SVP/J NBO PAL2
|  2> % maxcore 2000
|  3> % output
|  4>     # printlevel mini
|  5>     print[ P_Basis ] 0
|  6>     print[ P_SCFInfo ] 1
|  7>     print[ P_SCFIterInfo ] 1
|  8>     print[ P_OrbEn ] 0
|  9>     print[ P_Cartesian ] 0
| 10> end
| 11> *xyz 0 1
| 12>  N        0.8381260000     0.7807600000     0.4034570000
| 13>  C        2.0909020000     0.0477970000     0.3000440000
| 14>  C        3.3149090000     0.9054240000     0.6065610000
| 15>  O        3.3644520000     2.0766310000    -0.1862600000
| 16>  C        2.0700140000    -1.1725500000     1.1770670000
| 17>  C        1.3026140000    -2.3825450000     0.7511190000
| 18>  C        2.8003690000    -2.4131960000     0.7597340000
| 19>  H        0.9695820000     1.7121700000     0.0224130000
| 20>  H        0.5888090000     0.8978860000     1.3795520000
| 21>  H        2.1826010000    -0.2945120000    -0.7430000000
| 22>  H        4.2310620000     0.3102460000     0.4941400000
| 23>  H        3.2673470000     1.2507120000     1.6441130000
| 24>  H        3.5602260000     1.8197860000    -1.0911730000
| 25>  H        2.0704330000    -0.9547590000     2.2431640000
| 26>  H        0.7975150000    -2.3299510000    -0.2055190000
| 27>  H        0.7743830000    -2.9497620000     1.5070480000
| 28>  H        3.3117000000    -2.3975300000    -0.1960500000
| 29>  H        3.2995370000    -2.9976970000     1.5224010000
| 30> *
| 31>
| 32>                          ****END OF INPUT****
 Total Charge           Charge          ....    0
 Multiplicity           Mult            ....    1
 Number of Electrons    NEL             ....   56
 Basis Dimension        Dim             ....  153

MULLIKEN ATOMIC CHARGES
-----------------------
   0 N :   -0.155689
   1 C :   -0.003231
   2 C :    0.224316
   3 O :   -0.279066
   4 C :   -0.159268
   5 C :    0.005339
   6 C :   -0.031669
   7 H :    0.077749
   8 H :    0.080428
   9 H :   -0.033169
  10 H :   -0.011121
  11 H :   -0.009742
  12 H :    0.152568
  13 H :    0.014568
  14 H :    0.035349
  15 H :    0.031583
  16 H :    0.028082
  17 H :    0.032973
Sum of atomic charges:   -0.0000000

LOEWDIN ATOMIC CHARGES
----------------------
   0 N :   -0.096057
   1 C :   -0.020446
   2 C :    0.041634
   3 O :   -0.120514
   4 C :   -0.046941
   5 C :   -0.038027
   6 C :   -0.046629
   7 H :    0.043347
   8 H :    0.049130
   9 H :    0.013950
  10 H :    0.004552
  11 H :    0.014661
  12 H :    0.068342
  13 H :    0.023650
  14 H :    0.030327
  15 H :    0.027560
  16 H :    0.024131
  17 H :    0.027329

  Mayer bond orders larger than 0.1
B(  0-N ,  1-C ) :   1.0967 B(  0-N ,  7-H ) :   0.9505 B(  0-N ,  8-H ) :   0.9655
B(  1-C ,  2-C ) :   1.0127 B(  1-C ,  4-C ) :   1.0411 B(  1-C ,  9-H ) :   0.8739
B(  2-C ,  3-O ) :   1.0446 B(  2-C , 10-H ) :   0.9302 B(  2-C , 11-H ) :   0.9155
B(  3-O , 12-H ) :   0.9840 B(  4-C ,  5-C ) :   0.9829 B(  4-C ,  6-C ) :   0.9952
B(  4-C , 13-H ) :   0.9334 B(  5-C ,  6-C ) :   1.0623 B(  5-C , 14-H ) :   0.9411
B(  5-C , 15-H ) :   0.9442 B(  6-C , 16-H ) :   0.9422 B(  6-C , 17-H ) :   0.9422

FINAL SINGLE POINT ENERGY      -326.426844395748

DIPOLE MOMENT
-------------
                                X             Y             Z
Electronic contribution:      0.29488       3.03137      -0.80770
Nuclear contribution   :      0.05712      -3.27676       0.80556
                        -----------------------------------------
Total Dipole Moment    :      0.35200      -0.24539      -0.00215
                        -----------------------------------------
Magnitude (a.u.)       :      0.42910
Magnitude (Debye)      :      1.09069

                             ****ORCA TERMINATED NORMALLY****
TOTAL RUN TIME: 0 days 0 hours 0 minutes 7 seconds 941 msec
