                         Program Version 3.0.3 - RELEASE   -
|  1> ! RI PBE def2-SVP def2-SVP/J NBO PAL2
|  2> % maxcore 2000
|  3> % output
|  4>     # printlevel mini
|  5>     print[ P_Basis ] 0
|  6>     print[ P_SCFInfo ] 1
|  7>     print[ P_SCFIterInfo ] 1
|  8>     print[ P_OrbEn ] 0
|  9>     print[ P_Cartesian ] 0
| 10> end
| 11> *xyz 0 1
| 12>  N        1.0641430000    -0.3385160000    -0.8848540000
| 13>  C        1.9096600000    -0.5728080000     0.2791730000
| 14>  C        3.0516090000    -1.5215030000    -0.0958090000
| 15>  O        2.5340730000    -2.5654480000    -0.8857050000
| 16>  C        4.2329800000    -0.8603540000    -0.7827960000
| 17>  C        4.2363440000     0.5303000000    -1.3467150000
| 18>  C        5.0305260000     0.2145320000    -0.1151900000
| 19>  H        1.4506460000     0.3589220000    -1.5058310000
| 20>  H        0.1353360000    -0.0455390000    -0.6193150000
| 21>  H        2.3039040000     0.3427970000     0.7402360000
| 22>  H        1.2953230000    -1.0720080000     1.0317790000
| 23>  H        3.4277700000    -1.9800090000     0.8269580000
| 24>  H        1.7873740000    -2.1625130000    -1.3595960000
| 25>  H        4.8095090000    -1.5861500000    -1.3466190000
| 26>  H        3.3648270000     1.1608180000    -1.2147590000
| 27>  H        4.7665570000     0.7040530000    -2.2749400000
| 28>  H        4.6609910000     0.6068490000     0.8260630000
| 29>  H        6.1104190000     0.1775660000    -0.1862820000
| 30> *
| 31>
| 32>                          ****END OF INPUT****
 Total Charge           Charge          ....    0
 Multiplicity           Mult            ....    1
 Number of Electrons    NEL             ....   56
 Basis Dimension        Dim             ....  153

MULLIKEN ATOMIC CHARGES
-----------------------
   0 N :   -0.220541
   1 C :    0.036468
   2 C :    0.191066
   3 O :   -0.274351
   4 C :   -0.144433
   5 C :   -0.042250
   6 C :   -0.029060
   7 H :    0.095095
   8 H :    0.107310
   9 H :    0.001255
  10 H :    0.016710
  11 H :   -0.009381
  12 H :    0.131501
  13 H :    0.025496
  14 H :    0.020527
  15 H :    0.033023
  16 H :    0.022752
  17 H :    0.038812
Sum of atomic charges:    0.0000000

LOEWDIN ATOMIC CHARGES
----------------------
   0 N :   -0.080300
   1 C :   -0.006268
   2 C :    0.040681
   3 O :   -0.122174
   4 C :   -0.057931
   5 C :   -0.051597
   6 C :   -0.047082
   7 H :    0.051731
   8 H :    0.060922
   9 H :    0.006107
  10 H :    0.027661
  11 H :    0.018016
  12 H :    0.036900
  13 H :    0.031861
  14 H :    0.015793
  15 H :    0.027476
  16 H :    0.020297
  17 H :    0.027906

  Mayer bond orders larger than 0.1
B(  0-N ,  1-C ) :   1.0917 B(  0-N ,  7-H ) :   0.9717 B(  0-N ,  8-H ) :   0.9617
B(  0-N , 12-H ) :   0.1309 B(  1-C ,  2-C ) :   1.0494 B(  1-C ,  9-H ) :   0.9261
B(  1-C , 10-H ) :   0.9304 B(  2-C ,  3-O ) :   1.1024 B(  2-C ,  4-C ) :   1.0069
B(  2-C , 11-H ) :   0.9038 B(  3-O , 12-H ) :   0.9413 B(  4-C ,  5-C ) :   1.0008
B(  4-C ,  6-C ) :   0.9661 B(  4-C , 13-H ) :   0.9328 B(  5-C ,  6-C ) :   1.0474
B(  5-C , 14-H ) :   0.9277 B(  5-C , 15-H ) :   0.9450 B(  6-C , 16-H ) :   0.9435
B(  6-C , 17-H ) :   0.9415

FINAL SINGLE POINT ENERGY      -326.429342441528

DIPOLE MOMENT
-------------
                                X             Y             Z
Electronic contribution:     -0.62366      -3.37849      -0.82356
Nuclear contribution   :      0.19591       4.43521       0.98430
                        -----------------------------------------
Total Dipole Moment    :     -0.42776       1.05673       0.16074
                        -----------------------------------------
Magnitude (a.u.)       :      1.15130
Magnitude (Debye)      :      2.92636

                             ****ORCA TERMINATED NORMALLY****
TOTAL RUN TIME: 0 days 0 hours 0 minutes 8 seconds 99 msec
