                         Program Version 3.0.3 - RELEASE   -
|  1> ! RI PBE def2-SVP def2-SVP/J NBO PAL2
|  2> % maxcore 2000
|  3> % output
|  4>     # printlevel mini
|  5>     print[ P_Basis ] 0
|  6>     print[ P_SCFInfo ] 1
|  7>     print[ P_SCFIterInfo ] 1
|  8>     print[ P_OrbEn ] 0
|  9>     print[ P_Cartesian ] 0
| 10> end
| 11> *xyz 0 1
| 12>  N        1.0880350000    -0.9655230000     0.0010170000
| 13>  C        2.4343670000    -0.4301720000    -0.1060630000
| 14>  C        3.4244290000    -1.0485670000     0.8746180000
| 15>  O        3.0286150000    -0.8871480000     2.2212680000
| 16>  C        2.9528600000    -0.5319710000    -1.5243670000
| 17>  C        2.5420170000    -1.6246350000    -2.4270600000
| 18>  N        2.0572970000    -0.2626480000    -2.6361980000
| 19>  H        0.6754140000    -0.6703710000     0.8763290000
| 20>  H        1.1197950000    -1.9786750000     0.0377430000
| 21>  H        2.3621510000     0.6425460000     0.1273310000
| 22>  H        4.4304290000    -0.6407980000     0.7046410000
| 23>  H        3.4774790000    -2.1281490000     0.7025170000
| 24>  H        3.1594510000     0.0318150000     2.4681320000
| 25>  H        3.9498820000    -0.1178260000    -1.6559490000
| 26>  H        1.8351250000    -2.3616740000    -2.0602250000
| 27>  H        3.2340060000    -1.9928560000    -3.1766390000
| 28>  H        1.1151390000    -0.2077380000    -2.2526950000
| 29> *
| 30>
| 31>                          ****END OF INPUT****
 Total Charge           Charge          ....    0
 Multiplicity           Mult            ....    1
 Number of Electrons    NEL             ....   56
 Basis Dimension        Dim             ....  148

MULLIKEN ATOMIC CHARGES
-----------------------
   0 N :   -0.179972
   1 C :    0.006363
   2 C :    0.200284
   3 O :   -0.280530
   4 C :   -0.096161
   5 C :    0.037924
   6 N :   -0.182393
   7 H :    0.092856
   8 H :    0.093638
   9 H :   -0.001020
  10 H :   -0.006718
  11 H :    0.000658
  12 H :    0.152854
  13 H :    0.012157
  14 H :    0.016107
  15 H :    0.032429
  16 H :    0.101526
Sum of atomic charges:   -0.0000000

LOEWDIN ATOMIC CHARGES
----------------------
   0 N :   -0.081776
   1 C :   -0.031856
   2 C :    0.041993
   3 O :   -0.122706
   4 C :   -0.017302
   5 C :   -0.003639
   6 N :   -0.100391
   7 H :    0.055841
   8 H :    0.053038
   9 H :    0.022337
  10 H :    0.005660
  11 H :    0.017938
  12 H :    0.069198
  13 H :    0.018901
  14 H :    0.009500
  15 H :    0.019627
  16 H :    0.043637

  Mayer bond orders larger than 0.1
B(  0-N ,  1-C ) :   1.0876 B(  0-N ,  7-H ) :   0.9570 B(  0-N ,  8-H ) :   0.9637
B(  1-C ,  2-C ) :   1.0255 B(  1-C ,  4-C ) :   0.9775 B(  1-C ,  9-H ) :   0.8948
B(  2-C ,  3-O ) :   1.0697 B(  2-C , 10-H ) :   0.9308 B(  2-C , 11-H ) :   0.9209
B(  3-O , 12-H ) :   0.9855 B(  4-C ,  5-C ) :   1.0632 B(  4-C ,  6-N ) :   1.0015
B(  4-C , 13-H ) :   0.9308 B(  5-C ,  6-N ) :   1.0115 B(  5-C , 14-H ) :   0.9333
B(  5-C , 15-H ) :   0.9418 B(  6-N , 16-H ) :   0.9341

FINAL SINGLE POINT ENERGY      -342.439557440240

DIPOLE MOMENT
-------------
                                X             Y             Z
Electronic contribution:     -0.27754       1.05789       0.70227
Nuclear contribution   :      0.41721      -1.07243       0.09126
                        -----------------------------------------
Total Dipole Moment    :      0.13967      -0.01454       0.79352
                        -----------------------------------------
Magnitude (a.u.)       :      0.80585
Magnitude (Debye)      :      2.04832

                             ****ORCA TERMINATED NORMALLY****
TOTAL RUN TIME: 0 days 0 hours 0 minutes 7 seconds 76 msec
