                         Program Version 3.0.3 - RELEASE   -
|  1> ! RI PBE def2-SVP def2-SVP/J NBO PAL2
|  2> % maxcore 2000
|  3> % output
|  4>     # printlevel mini
|  5>     print[ P_Basis ] 0
|  6>     print[ P_SCFInfo ] 1
|  7>     print[ P_SCFIterInfo ] 1
|  8>     print[ P_OrbEn ] 0
|  9>     print[ P_Cartesian ] 0
| 10> end
| 11> *xyz 0 1
| 12>  N        1.4988170000    -0.1114440000     0.8044260000
| 13>  C        1.8867120000     0.7802220000    -0.2805280000
| 14>  C        3.0480000000     1.6515290000     0.1947180000
| 15>  O        2.7191200000     2.2188920000     1.4395440000
| 16>  C        4.3402840000     0.8611000000     0.2627950000
| 17>  C        5.4411060000     1.2876390000     1.1372900000
| 18>  N        4.6655940000     0.0867060000     1.4568780000
| 19>  H        2.1508770000    -0.8807990000     0.8985650000
| 20>  H        0.5771420000    -0.4984810000     0.6603110000
| 21>  H        2.1639110000     0.2665680000    -1.2108550000
| 22>  H        1.0360650000     1.4301180000    -0.5017070000
| 23>  H        3.1874570000     2.4690260000    -0.5227550000
| 24>  H        2.0920890000     1.5887980000     1.8317300000
| 25>  H        4.5950790000     0.3573580000    -0.6677070000
| 26>  H        5.2693120000     2.1684560000     1.7465690000
| 27>  H        6.4688380000     1.1084760000     0.8417480000
| 28>  H        4.0050170000     0.3385470000     2.1873770000
| 29> *
| 30>
| 31>                          ****END OF INPUT****
 Total Charge           Charge          ....    0
 Multiplicity           Mult            ....    1
 Number of Electrons    NEL             ....   56
 Basis Dimension        Dim             ....  148

MULLIKEN ATOMIC CHARGES
-----------------------
   0 N :   -0.233573
   1 C :    0.066951
   2 C :    0.139134
   3 O :   -0.269639
   4 C :   -0.102157
   5 C :    0.053167
   6 N :   -0.209300
   7 H :    0.110660
   8 H :    0.105281
   9 H :    0.003610
  10 H :    0.019490
  11 H :    0.009470
  12 H :    0.144088
  13 H :    0.007813
  14 H :    0.034042
  15 H :    0.029984
  16 H :    0.090978
Sum of atomic charges:   -0.0000000

LOEWDIN ATOMIC CHARGES
----------------------
   0 N :   -0.089001
   1 C :   -0.003190
   2 C :    0.029116
   3 O :   -0.108182
   4 C :   -0.031784
   5 C :    0.001969
   6 N :   -0.111815
   7 H :    0.060930
   8 H :    0.060225
   9 H :    0.008824
  10 H :    0.024706
  11 H :    0.023142
  12 H :    0.042005
  13 H :    0.017866
  14 H :    0.017997
  15 H :    0.018378
  16 H :    0.038815

  Mayer bond orders larger than 0.1
B(  0-N ,  1-C ) :   1.0795 B(  0-N ,  7-H ) :   0.9621 B(  0-N ,  8-H ) :   0.9647
B(  0-N , 12-H ) :   0.1188 B(  1-C ,  2-C ) :   1.0542 B(  1-C ,  9-H ) :   0.9293
B(  1-C , 10-H ) :   0.9323 B(  2-C ,  3-O ) :   1.0758 B(  2-C ,  4-C ) :   0.9673
B(  2-C , 11-H ) :   0.9076 B(  3-O , 12-H ) :   0.9400 B(  4-C ,  5-C ) :   1.0553
B(  4-C ,  6-N ) :   0.9993 B(  4-C , 13-H ) :   0.9281 B(  5-C ,  6-N ) :   1.0025
B(  5-C , 14-H ) :   0.9334 B(  5-C , 15-H ) :   0.9428 B(  6-N , 16-H ) :   0.9333

FINAL SINGLE POINT ENERGY      -342.447891858324

DIPOLE MOMENT
-------------
                                X             Y             Z
Electronic contribution:      0.71328       0.84645       1.45520
Nuclear contribution   :     -1.49957      -1.21573      -2.00979
                        -----------------------------------------
Total Dipole Moment    :     -0.78629      -0.36928      -0.55458
                        -----------------------------------------
Magnitude (a.u.)       :      1.03063
Magnitude (Debye)      :      2.61964

                             ****ORCA TERMINATED NORMALLY****
TOTAL RUN TIME: 0 days 0 hours 0 minutes 7 seconds 669 msec
