                         Program Version 3.0.3 - RELEASE   -
|  1> ! RI PBE def2-SVP def2-SVP/J NBO PAL2
|  2> % maxcore 2000
|  3> % output
|  4>     # printlevel mini
|  5>     print[ P_Basis ] 0
|  6>     print[ P_SCFInfo ] 1
|  7>     print[ P_SCFIterInfo ] 1
|  8>     print[ P_OrbEn ] 0
|  9>     print[ P_Cartesian ] 0
| 10> end
| 11> *xyz 0 1
| 12>  N        0.8145800000    -0.1866890000     0.2211410000
| 13>  C        2.2618110000    -0.1719060000     0.0857020000
| 14>  C        3.0013600000     0.0478250000     1.4026110000
| 15>  O        2.5902240000     1.2390250000     2.0446080000
| 16>  C        2.7216840000    -1.4451600000    -0.5665610000
| 17>  C        2.8825850000    -1.5591500000    -2.0084710000
| 18>  O        4.0116140000    -1.4240230000    -1.1559820000
| 19>  H        0.5380060000     0.5991620000     0.8004260000
| 20>  H        0.5235970000    -1.0200410000     0.7225830000
| 21>  H        2.5275490000     0.6522320000    -0.5903960000
| 22>  H        4.0850550000     0.0363200000     1.2321360000
| 23>  H        2.7622570000    -0.7652340000     2.0959830000
| 24>  H        2.9807370000     1.9832560000     1.5794610000
| 25>  H        2.5071820000    -2.3575240000    -0.0055170000
| 26>  H        2.6626610000    -0.6954670000    -2.6307180000
| 27>  H        2.7797790000    -2.5279240000    -2.4901040000
| 28> *
| 29>
| 30>                          ****END OF INPUT****
 Total Charge           Charge          ....    0
 Multiplicity           Mult            ....    1
 Number of Electrons    NEL             ....   56
 Basis Dimension        Dim             ....  143

MULLIKEN ATOMIC CHARGES
-----------------------
   0 N :   -0.159861
   1 C :    0.006770
   2 C :    0.202916
   3 O :   -0.279861
   4 C :   -0.010149
   5 C :    0.163868
   6 O :   -0.291460
   7 H :    0.084858
   8 H :    0.080014
   9 H :   -0.025802
  10 H :    0.012347
  11 H :   -0.008230
  12 H :    0.155105
  13 H :    0.012319
  14 H :    0.028981
  15 H :    0.028184
Sum of atomic charges:   -0.0000000

LOEWDIN ATOMIC CHARGES
----------------------
   0 N :   -0.092806
   1 C :   -0.035956
   2 C :    0.041291
   3 O :   -0.119420
   4 C :    0.038890
   5 C :    0.063744
   6 O :   -0.156597
   7 H :    0.047844
   8 H :    0.048494
   9 H :    0.020136
  10 H :    0.010888
  11 H :    0.014766
  12 H :    0.071056
  13 H :    0.013351
  14 H :    0.017666
  15 H :    0.016654

  Mayer bond orders larger than 0.1
B(  0-N ,  1-C ) :   1.0822 B(  0-N ,  7-H ) :   0.9501 B(  0-N ,  8-H ) :   0.9660
B(  1-C ,  2-C ) :   0.9977 B(  1-C ,  4-C ) :   0.9938 B(  1-C ,  9-H ) :   0.8759
B(  2-C ,  3-O ) :   1.0549 B(  2-C , 10-H ) :   0.9348 B(  2-C , 11-H ) :   0.9159
B(  3-O , 12-H ) :   0.9840 B(  4-C ,  5-C ) :   1.0967 B(  4-C ,  6-O ) :   0.9733
B(  4-C , 13-H ) :   0.9264 B(  5-C ,  6-O ) :   1.0069 B(  5-C , 14-H ) :   0.9242
B(  5-C , 15-H ) :   0.9368

FINAL SINGLE POINT ENERGY      -362.278416778936

DIPOLE MOMENT
-------------
                                X             Y             Z
Electronic contribution:      1.80438       0.02620      -0.31855
Nuclear contribution   :     -1.97753       0.04141       0.27449
                        -----------------------------------------
Total Dipole Moment    :     -0.17316       0.06761      -0.04406
                        -----------------------------------------
Magnitude (a.u.)       :      0.19104
Magnitude (Debye)      :      0.48558

                             ****ORCA TERMINATED NORMALLY****
TOTAL RUN TIME: 0 days 0 hours 0 minutes 7 seconds 148 msec
