                         Program Version 3.0.3 - RELEASE   -
|  1> ! RI PBE def2-SVP def2-SVP/J NBO PAL2
|  2> % maxcore 2000
|  3> % output
|  4>     # printlevel mini
|  5>     print[ P_Basis ] 0
|  6>     print[ P_SCFInfo ] 1
|  7>     print[ P_SCFIterInfo ] 1
|  8>     print[ P_OrbEn ] 0
|  9>     print[ P_Cartesian ] 0
| 10> end
| 11> *xyz 0 1
| 12>  N        1.3622240000    -0.4256090000    -0.6804780000
| 13>  C        1.8765500000    -0.2883420000     0.6779230000
| 14>  C        2.7968330000    -1.4646620000     0.9997760000
| 15>  O        2.2368960000    -2.6560560000     0.5108170000
| 16>  C        4.2159600000    -1.3193180000     0.4898800000
| 17>  C        4.6978580000    -0.2799730000    -0.4166320000
| 18>  O        4.9615750000    -0.2124350000     0.9737340000
| 19>  H        1.9910140000    -0.0413440000    -1.3720960000
| 20>  H        0.4672650000     0.0287850000    -0.7879970000
| 21>  H        2.3966740000     0.6565970000     0.8761340000
| 22>  H        1.0236880000    -0.3381440000     1.3579330000
| 23>  H        2.8728240000    -1.5527620000     2.0905820000
| 24>  H        1.7218080000    -2.3750490000    -0.2648700000
| 25>  H        4.7587310000    -2.2638330000     0.4970670000
| 26>  H        4.0246520000     0.4878960000    -0.7909330000
| 27>  H        5.5618770000    -0.4776510000    -1.0468390000
| 28> *
| 29>
| 30>                          ****END OF INPUT****
 Total Charge           Charge          ....    0
 Multiplicity           Mult            ....    1
 Number of Electrons    NEL             ....   56
 Basis Dimension        Dim             ....  143

MULLIKEN ATOMIC CHARGES
-----------------------
   0 N :   -0.222242
   1 C :    0.036740
   2 C :    0.175736
   3 O :   -0.272708
   4 C :   -0.015244
   5 C :    0.135853
   6 O :   -0.290969
   7 H :    0.090944
   8 H :    0.107308
   9 H :    0.019721
  10 H :    0.019754
  11 H :    0.007316
  12 H :    0.137247
  13 H :    0.023939
  14 H :    0.012480
  15 H :    0.034126
Sum of atomic charges:    0.0000000

LOEWDIN ATOMIC CHARGES
----------------------
   0 N :   -0.081974
   1 C :   -0.006065
   2 C :    0.022772
   3 O :   -0.116340
   4 C :    0.027386
   5 C :    0.046991
   6 O :   -0.153363
   7 H :    0.049690
   8 H :    0.061436
   9 H :    0.012256
  10 H :    0.030091
  11 H :    0.025472
  12 H :    0.040098
  13 H :    0.018895
  14 H :    0.005139
  15 H :    0.017514

  Mayer bond orders larger than 0.1
B(  0-N ,  1-C ) :   1.0855 B(  0-N ,  7-H ) :   0.9707 B(  0-N ,  8-H ) :   0.9644
B(  0-N , 12-H ) :   0.1291 B(  1-C ,  2-C ) :   1.0546 B(  1-C ,  9-H ) :   0.9256
B(  1-C , 10-H ) :   0.9273 B(  2-C ,  3-O ) :   1.0977 B(  2-C ,  4-C ) :   0.9705
B(  2-C , 11-H ) :   0.8940 B(  3-O , 12-H ) :   0.9401 B(  4-C ,  5-C ) :   1.0923
B(  4-C ,  6-O ) :   0.9425 B(  4-C , 13-H ) :   0.9325 B(  5-C ,  6-O ) :   1.0104
B(  5-C , 14-H ) :   0.9127 B(  5-C , 15-H ) :   0.9369

FINAL SINGLE POINT ENERGY      -362.283217482643

DIPOLE MOMENT
-------------
                                X             Y             Z
Electronic contribution:      2.54730      -1.68846       1.59876
Nuclear contribution   :     -3.11490       2.50400      -2.40201
                        -----------------------------------------
Total Dipole Moment    :     -0.56760       0.81554      -0.80325
                        -----------------------------------------
Magnitude (a.u.)       :      1.27769
Magnitude (Debye)      :      3.24762

                             ****ORCA TERMINATED NORMALLY****
TOTAL RUN TIME: 0 days 0 hours 0 minutes 7 seconds 235 msec
