                         Program Version 3.0.3 - RELEASE   -
|  1> ! RI PBE def2-SVP def2-SVP/J NBO PAL2
|  2> % maxcore 2000
|  3> % output
|  4>     # printlevel mini
|  5>     print[ P_Basis ] 0
|  6>     print[ P_SCFInfo ] 1
|  7>     print[ P_SCFIterInfo ] 1
|  8>     print[ P_OrbEn ] 0
|  9>     print[ P_Cartesian ] 0
| 10> end
| 11> *xyz 0 1
| 12>  N        1.7499430000     0.9424080000     0.0498100000
| 13>  C        2.6590450000    -0.0663560000     0.5691150000
| 14>  C        2.9465100000     0.0941340000     2.0574900000
| 15>  O        3.4374210000     1.3850940000     2.3682250000
| 16>  C        2.1155490000    -1.4557810000     0.2472320000
| 17>  C        3.0904540000    -2.5621040000     0.4754460000
| 18>  C        2.8886650000    -3.6179640000     1.2513840000
| 19>  H        2.0267830000     1.8488780000     0.4121400000
| 20>  H        0.8135030000     0.7704030000     0.4022200000
| 21>  H        3.6128320000     0.0549560000     0.0331670000
| 22>  H        3.6351350000    -0.6863870000     2.4047200000
| 23>  H        2.0130540000    -0.0145350000     2.6198410000
| 24>  H        4.3433250000     1.4464240000     2.0547000000
| 25>  H        1.8194370000    -1.4417220000    -0.8080130000
| 26>  H        1.2043660000    -1.6367120000     0.8308860000
| 27>  H        4.0347780000    -2.4789750000    -0.0618660000
| 28>  H        1.9629350000    -3.7457690000     1.8044230000
| 29>  H        3.6359460000    -4.3956820000     1.3580820000
| 30> *
| 31>
| 32>                          ****END OF INPUT****
 Total Charge           Charge          ....    0
 Multiplicity           Mult            ....    1
 Number of Electrons    NEL             ....   56
 Basis Dimension        Dim             ....  153

MULLIKEN ATOMIC CHARGES
-----------------------
   0 N :   -0.164466
   1 C :   -0.097593
   2 C :    0.219419
   3 O :   -0.283237
   4 C :    0.081422
   5 C :   -0.082080
   6 C :   -0.033404
   7 H :    0.080413
   8 H :    0.082655
   9 H :   -0.011319
  10 H :   -0.002415
  11 H :   -0.011742
  12 H :    0.153235
  13 H :    0.030087
  14 H :   -0.004737
  15 H :    0.000282
  16 H :    0.017783
  17 H :    0.025697
Sum of atomic charges:   -0.0000000

LOEWDIN ATOMIC CHARGES
----------------------
   0 N :   -0.097123
   1 C :   -0.023072
   2 C :    0.040922
   3 O :   -0.120652
   4 C :   -0.040759
   5 C :   -0.028719
   6 C :   -0.067944
   7 H :    0.045934
   8 H :    0.049144
   9 H :    0.014316
  10 H :    0.006391
  11 H :    0.014826
  12 H :    0.069083
  13 H :    0.040826
  14 H :    0.025032
  15 H :    0.025125
  16 H :    0.021618
  17 H :    0.025051

  Mayer bond orders larger than 0.1
B(  0-N ,  1-C ) :   1.0983 B(  0-N ,  7-H ) :   0.9523 B(  0-N ,  8-H ) :   0.9650
B(  1-C ,  2-C ) :   1.0077 B(  1-C ,  4-C ) :   1.0419 B(  1-C ,  9-H ) :   0.8989
B(  2-C ,  3-O ) :   1.0502 B(  2-C , 10-H ) :   0.9291 B(  2-C , 11-H ) :   0.9166
B(  3-O , 12-H ) :   0.9848 B(  4-C ,  5-C ) :   1.0752 B(  4-C , 13-H ) :   0.8979
B(  4-C , 14-H ) :   0.9159 B(  5-C ,  6-C ) :   1.9941 B(  5-C , 15-H ) :   0.9528
B(  6-C , 16-H ) :   0.9480 B(  6-C , 17-H ) :   0.9420

FINAL SINGLE POINT ENERGY      -326.429983141023

DIPOLE MOMENT
-------------
                                X             Y             Z
Electronic contribution:      0.88155       2.63650       0.45510
Nuclear contribution   :     -0.58519      -2.83193      -0.32987
                        -----------------------------------------
Total Dipole Moment    :      0.29636      -0.19542       0.12522
                        -----------------------------------------
Magnitude (a.u.)       :      0.37643
Magnitude (Debye)      :      0.95680

                             ****ORCA TERMINATED NORMALLY****
TOTAL RUN TIME: 0 days 0 hours 0 minutes 7 seconds 862 msec
