                         Program Version 3.0.3 - RELEASE   -
|  1> ! RI PBE def2-SVP def2-SVP/J NBO PAL2
|  2> % maxcore 2000
|  3> % output
|  4>     # printlevel mini
|  5>     print[ P_Basis ] 0
|  6>     print[ P_SCFInfo ] 1
|  7>     print[ P_SCFIterInfo ] 1
|  8>     print[ P_OrbEn ] 0
|  9>     print[ P_Cartesian ] 0
| 10> end
| 11> *xyz 0 1
| 12>  N        1.1365100000    -0.1891410000     0.1596320000
| 13>  C        2.5372640000    -0.0023420000    -0.1756690000
| 14>  C        2.8398840000    -0.1943640000    -1.6571680000
| 15>  O        2.4304790000    -1.4686760000    -2.1145340000
| 16>  C        2.9787020000     1.3768520000     0.3165540000
| 17>  C        4.4096000000     1.6082080000     0.2267570000
| 18>  C        5.5949340000     1.7877320000     0.1595820000
| 19>  H        0.8167660000    -1.0581600000    -0.2546810000
| 20>  H        0.5809560000     0.5463680000    -0.2668180000
| 21>  H        3.1093600000    -0.7540400000     0.3842470000
| 22>  H        3.9039390000    -0.0201020000    -1.8574500000
| 23>  H        2.2667500000     0.5341970000    -2.2407880000
| 24>  H        3.0674530000    -2.1186300000    -1.8073980000
| 25>  H        2.6538050000     1.4828090000     1.3558050000
| 26>  H        2.4506750000     2.1506920000    -0.2557770000
| 27>  H        6.6446220000     1.9538950000     0.1037060000
| 28> *
| 29>
| 30>                          ****END OF INPUT****
 Total Charge           Charge          ....    0
 Multiplicity           Mult            ....    1
 Number of Electrons    NEL             ....   54
 Basis Dimension        Dim             ....  143

MULLIKEN ATOMIC CHARGES
-----------------------
   0 N :   -0.153464
   1 C :   -0.108411
   2 C :    0.217256
   3 O :   -0.281428
   4 C :    0.106625
   5 C :    0.337694
   6 C :   -0.503607
   7 H :    0.083439
   8 H :    0.082903
   9 H :    0.003435
  10 H :    0.006429
  11 H :   -0.012949
  12 H :    0.155689
  13 H :    0.044443
  14 H :    0.024363
  15 H :   -0.002417
Sum of atomic charges:   -0.0000000

LOEWDIN ATOMIC CHARGES
----------------------
   0 N :   -0.093313
   1 C :   -0.017191
   2 C :    0.041387
   3 O :   -0.119277
   4 C :   -0.045561
   5 C :   -0.022571
   6 C :   -0.092340
   7 H :    0.049016
   8 H :    0.049493
   9 H :    0.021554
  10 H :    0.010644
  11 H :    0.014697
  12 H :    0.070880
  13 H :    0.053805
  14 H :    0.044805
  15 H :    0.033971

  Mayer bond orders larger than 0.1
B(  0-N ,  1-C ) :   1.1055 B(  0-N ,  7-H ) :   0.9530 B(  0-N ,  8-H ) :   0.9624
B(  1-C ,  2-C ) :   1.0063 B(  1-C ,  4-C ) :   1.0374 B(  1-C ,  9-H ) :   0.9003
B(  2-C ,  3-O ) :   1.0571 B(  2-C , 10-H ) :   0.9321 B(  2-C , 11-H ) :   0.9134
B(  3-O , 12-H ) :   0.9852 B(  4-C ,  5-C ) :   1.0618 B(  4-C , 13-H ) :   0.8876
B(  4-C , 14-H ) :   0.8791 B(  5-C ,  6-C ) :   2.3160 B(  5-C , 15-H ) :  -0.1140
B(  6-C , 15-H ) :   1.1050

FINAL SINGLE POINT ENERGY      -325.187693989445

DIPOLE MOMENT
-------------
                                X             Y             Z
Electronic contribution:      1.94104       0.07319       0.13717
Nuclear contribution   :     -1.74121      -0.16789      -0.29766
                        -----------------------------------------
Total Dipole Moment    :      0.19983      -0.09470      -0.16048
                        -----------------------------------------
Magnitude (a.u.)       :      0.27323
Magnitude (Debye)      :      0.69450

                             ****ORCA TERMINATED NORMALLY****
TOTAL RUN TIME: 0 days 0 hours 0 minutes 7 seconds 554 msec
