                         Program Version 3.0.3 - RELEASE   -
|  1> ! RI PBE def2-SVP def2-SVP/J NBO PAL2
|  2> % maxcore 2000
|  3> % output
|  4>     # printlevel mini
|  5>     print[ P_Basis ] 0
|  6>     print[ P_SCFInfo ] 1
|  7>     print[ P_SCFIterInfo ] 1
|  8>     print[ P_OrbEn ] 0
|  9>     print[ P_Cartesian ] 0
| 10> end
| 11> *xyz 0 1
| 12>  N        1.2100150000    -0.6083250000    -0.3685570000
| 13>  C        2.6404720000    -0.4445860000    -0.1440490000
| 14>  C        3.0839700000     0.8790110000    -0.7517570000
| 15>  O        2.2492800000     1.9103840000    -0.2823970000
| 16>  C        4.5247430000     1.2131840000    -0.4021730000
| 17>  C        5.0027640000     2.4712800000    -1.0470840000
| 18>  C        6.0725000000     2.5632470000    -1.8247980000
| 19>  H        0.8051260000    -1.2812490000     0.2669490000
| 20>  H        1.0199200000    -0.9248030000    -1.3112420000
| 21>  H        3.2543740000    -1.2634370000    -0.5441840000
| 22>  H        2.8092550000    -0.3988200000     0.9362090000
| 23>  H        3.0005150000     0.8013110000    -1.8503900000
| 24>  H        1.3708040000     1.5048610000    -0.2229590000
| 25>  H        5.1710610000     0.3772720000    -0.6894180000
| 26>  H        4.5785560000     1.3170450000     0.6891250000
| 27>  H        4.4026100000     3.3560480000    -0.8507070000
| 28>  H        6.6919860000     1.6981310000    -2.0436750000
| 29>  H        6.3718470000     3.5055450000    -2.2691940000
| 30> *
| 31>
| 32>                          ****END OF INPUT****
 Total Charge           Charge          ....    0
 Multiplicity           Mult            ....    1
 Number of Electrons    NEL             ....   56
 Basis Dimension        Dim             ....  153

MULLIKEN ATOMIC CHARGES
-----------------------
   0 N :   -0.216447
   1 C :    0.083435
   2 C :    0.023531
   3 O :   -0.264484
   4 C :    0.092502
   5 C :   -0.069271
   6 C :   -0.036051
   7 H :    0.103939
   8 H :    0.099642
   9 H :   -0.003738
  10 H :    0.005941
  11 H :   -0.013635
  12 H :    0.139623
  13 H :   -0.008621
  14 H :    0.018462
  15 H :    0.014531
  16 H :    0.011029
  17 H :    0.019613
Sum of atomic charges:   -0.0000000

LOEWDIN ATOMIC CHARGES
----------------------
   0 N :   -0.091754
   1 C :   -0.008690
   2 C :    0.035800
   3 O :   -0.121471
   4 C :   -0.046365
   5 C :   -0.020835
   6 C :   -0.073016
   7 H :    0.059556
   8 H :    0.057743
   9 H :    0.006006
  10 H :    0.022389
  11 H :    0.001531
  12 H :    0.046204
  13 H :    0.026791
  14 H :    0.035717
  15 H :    0.029803
  16 H :    0.017861
  17 H :    0.022730

  Mayer bond orders larger than 0.1
B(  0-N ,  1-C ) :   1.0930 B(  0-N ,  7-H ) :   0.9641 B(  0-N ,  8-H ) :   0.9675
B(  0-N , 12-H ) :   0.1140 B(  1-C ,  2-C ) :   1.0435 B(  1-C ,  9-H ) :   0.9240
B(  1-C , 10-H ) :   0.9209 B(  2-C ,  3-O ) :   1.0963 B(  2-C ,  4-C ) :   1.0387
B(  2-C , 11-H ) :   0.8983 B(  3-O , 12-H ) :   0.9422 B(  4-C ,  5-C ) :   1.0724
B(  4-C , 13-H ) :   0.9179 B(  4-C , 14-H ) :   0.8938 B(  5-C ,  6-C ) :   2.0036
B(  5-C , 15-H ) :   0.9573 B(  6-C , 16-H ) :   0.9452 B(  6-C , 17-H ) :   0.9439

FINAL SINGLE POINT ENERGY      -326.437302377001

DIPOLE MOMENT
-------------
                                X             Y             Z
Electronic contribution:     -1.79852       1.97335       0.45771
Nuclear contribution   :      1.41279      -3.17438      -0.48535
                        -----------------------------------------
Total Dipole Moment    :     -0.38573      -1.20103      -0.02764
                        -----------------------------------------
Magnitude (a.u.)       :      1.26175
Magnitude (Debye)      :      3.20712

                             ****ORCA TERMINATED NORMALLY****
TOTAL RUN TIME: 0 days 0 hours 0 minutes 7 seconds 558 msec
