                         Program Version 3.0.3 - RELEASE   -
|  1> ! RI PBE def2-SVP def2-SVP/J NBO PAL2
|  2> % maxcore 2000
|  3> % output
|  4>     # printlevel mini
|  5>     print[ P_Basis ] 0
|  6>     print[ P_SCFInfo ] 1
|  7>     print[ P_SCFIterInfo ] 1
|  8>     print[ P_OrbEn ] 0
|  9>     print[ P_Cartesian ] 0
| 10> end
| 11> *xyz 0 1
| 12>  N        2.6751600000     0.7252430000    -1.2642150000
| 13>  C        2.4479120000    -0.0918600000    -0.0762820000
| 14>  C        3.0715310000    -1.4672510000    -0.2882290000
| 15>  O        2.6291280000    -2.0013000000    -1.5080940000
| 16>  C        4.6101520000    -1.4369740000    -0.2684440000
| 17>  C        5.1717230000    -0.9851200000     0.9913140000
| 18>  C        5.6096680000    -0.6073720000     2.0442500000
| 19>  H        3.5576470000     1.2171190000    -1.2147110000
| 20>  H        1.9511210000     1.4197610000    -1.3789980000
| 21>  H        1.3704780000    -0.2325860000     0.0358040000
| 22>  H        2.8264030000     0.3534710000     0.8509520000
| 23>  H        2.7328100000    -2.1348980000     0.5099480000
| 24>  H        2.5740220000    -1.2346940000    -2.1008170000
| 25>  H        4.9648020000    -0.8004230000    -1.0870810000
| 26>  H        4.9644030000    -2.4469290000    -0.4930830000
| 27>  H        6.0086490000    -0.2803770000     2.9750860000
| 28> *
| 29>
| 30>                          ****END OF INPUT****
 Total Charge           Charge          ....    0
 Multiplicity           Mult            ....    1
 Number of Electrons    NEL             ....   54
 Basis Dimension        Dim             ....  143

MULLIKEN ATOMIC CHARGES
-----------------------
   0 N :   -0.234539
   1 C :    0.060803
   2 C :    0.064653
   3 O :   -0.268146
   4 C :    0.115684
   5 C :    0.312342
   6 C :   -0.499820
   7 H :    0.103536
   8 H :    0.106525
   9 H :    0.021781
  10 H :    0.015307
  11 H :    0.008733
  12 H :    0.139926
  13 H :    0.017725
  14 H :    0.039506
  15 H :   -0.004016
Sum of atomic charges:    0.0000000

LOEWDIN ATOMIC CHARGES
----------------------
   0 N :   -0.092003
   1 C :   -0.006262
   2 C :    0.042886
   3 O :   -0.112951
   4 C :   -0.062842
   5 C :   -0.025651
   6 C :   -0.097603
   7 H :    0.057976
   8 H :    0.060846
   9 H :    0.026981
  10 H :    0.013874
  11 H :    0.021820
  12 H :    0.045150
  13 H :    0.041377
  14 H :    0.052838
  15 H :    0.033564

  Mayer bond orders larger than 0.1
B(  0-N ,  1-C ) :   1.0821 B(  0-N ,  7-H ) :   0.9696 B(  0-N ,  8-H ) :   0.9659
B(  0-N , 12-H ) :   0.1109 B(  1-C ,  2-C ) :   1.0384 B(  1-C ,  9-H ) :   0.9346
B(  1-C , 10-H ) :   0.9294 B(  2-C ,  3-O ) :   1.0850 B(  2-C ,  4-C ) :   1.0079
B(  2-C , 11-H ) :   0.9132 B(  3-O , 12-H ) :   0.9495 B(  4-C ,  5-C ) :   1.0232
B(  4-C , 13-H ) :   0.8909 B(  4-C , 14-H ) :   0.8888 B(  5-C ,  6-C ) :   2.3345
B(  5-C , 15-H ) :  -0.1123 B(  6-C , 15-H ) :   1.1028

FINAL SINGLE POINT ENERGY      -325.194554928672

DIPOLE MOMENT
-------------
                                X             Y             Z
Electronic contribution:      1.68265      -1.95490       0.65912
Nuclear contribution   :     -1.80770       3.01897      -0.54269
                        -----------------------------------------
Total Dipole Moment    :     -0.12505       1.06406       0.11643
                        -----------------------------------------
Magnitude (a.u.)       :      1.07769
Magnitude (Debye)      :      2.73928

                             ****ORCA TERMINATED NORMALLY****
TOTAL RUN TIME: 0 days 0 hours 0 minutes 7 seconds 608 msec
