                         Program Version 3.0.3 - RELEASE   -
|  1> ! RI PBE def2-SVP def2-SVP/J NBO PAL2
|  2> % maxcore 2000
|  3> % output
|  4>     # printlevel mini
|  5>     print[ P_Basis ] 0
|  6>     print[ P_SCFInfo ] 1
|  7>     print[ P_SCFIterInfo ] 1
|  8>     print[ P_OrbEn ] 0
|  9>     print[ P_Cartesian ] 0
| 10> end
| 11> *xyz 0 1
| 12>  N        2.3924580000    -0.0742530000    -1.5957460000
| 13>  C        2.0616280000    -0.5074810000    -0.2499660000
| 14>  C        2.3124420000     0.6107040000     0.7290020000
| 15>  O        3.6959200000     0.8740600000     0.7576070000
| 16>  C        4.0241270000     1.9794450000     1.5461150000
| 17>  C        5.4961560000     2.1986060000     1.5920410000
| 18>  C        6.4041160000     1.4352290000     1.0041740000
| 19>  H        2.2779410000    -0.8316200000    -2.2565430000
| 20>  H        3.3645830000     0.2084960000    -1.6258960000
| 21>  H        2.6211020000    -1.3931710000     0.0899390000
| 22>  H        0.9974990000    -0.7604790000    -0.2096510000
| 23>  H        1.9599840000     0.3264450000     1.7319000000
| 24>  H        1.7637070000     1.5089720000     0.4102090000
| 25>  H        3.6466500000     1.8434690000     2.5748430000
| 26>  H        3.5314220000     2.8876180000     1.1584670000
| 27>  H        5.8039490000     3.0679780000     2.1684590000
| 28>  H        6.1152260000     0.5641670000     0.4288500000
| 29>  H        7.4607000000     1.6607160000     1.0842870000
| 30> *
| 31>
| 32>                          ****END OF INPUT****
 Total Charge           Charge          ....    0
 Multiplicity           Mult            ....    1
 Number of Electrons    NEL             ....   56
 Basis Dimension        Dim             ....  153

MULLIKEN ATOMIC CHARGES
-----------------------
   0 N :   -0.229414
   1 C :    0.090337
   2 C :    0.150394
   3 O :   -0.350982
   4 C :    0.241184
   5 C :   -0.125836
   6 C :   -0.020731
   7 H :    0.088976
   8 H :    0.093893
   9 H :   -0.003652
  10 H :    0.005433
  11 H :   -0.005308
  12 H :   -0.000265
  13 H :    0.004440
  14 H :    0.005074
  15 H :    0.006254
  16 H :    0.025238
  17 H :    0.024968
Sum of atomic charges:    0.0000000

LOEWDIN ATOMIC CHARGES
----------------------
   0 N :   -0.113702
   1 C :   -0.003317
   2 C :    0.057036
   3 O :   -0.140561
   4 C :    0.059654
   5 C :   -0.048480
   6 C :   -0.062793
   7 H :    0.052154
   8 H :    0.049183
   9 H :    0.003486
  10 H :    0.025281
  11 H :    0.005746
  12 H :    0.007399
  13 H :    0.015902
  14 H :    0.016390
  15 H :    0.028683
  16 H :    0.022898
  17 H :    0.025039

  Mayer bond orders larger than 0.1
B(  0-N ,  1-C ) :   1.0908 B(  0-N ,  7-H ) :   0.9676 B(  0-N ,  8-H ) :   0.9656
B(  1-C ,  2-C ) :   1.0978 B(  1-C ,  9-H ) :   0.9181 B(  1-C , 10-H ) :   0.9234
B(  2-C ,  3-O ) :   0.9955 B(  2-C , 11-H ) :   0.9273 B(  2-C , 12-H ) :   0.9174
B(  3-O ,  4-C ) :   1.0343 B(  4-C ,  5-C ) :   1.0451 B(  4-C , 13-H ) :   0.9102
B(  4-C , 14-H ) :   0.9106 B(  5-C ,  6-C ) :   2.0287 B(  5-C , 15-H ) :   0.9440
B(  6-C , 16-H ) :   0.9388 B(  6-C , 17-H ) :   0.9438

FINAL SINGLE POINT ENERGY      -326.419252797264

DIPOLE MOMENT
-------------
                                X             Y             Z
Electronic contribution:      1.18288       0.60587       0.20914
Nuclear contribution   :     -1.30302      -0.74462       0.01293
                        -----------------------------------------
Total Dipole Moment    :     -0.12014      -0.13876       0.22207
                        -----------------------------------------
Magnitude (a.u.)       :      0.28810
Magnitude (Debye)      :      0.73229

                             ****ORCA TERMINATED NORMALLY****
TOTAL RUN TIME: 0 days 0 hours 0 minutes 7 seconds 335 msec
