                         Program Version 3.0.3 - RELEASE   -
|  1> ! RI PBE def2-SVP def2-SVP/J NBO PAL2
|  2> % maxcore 2000
|  3> % output
|  4>     # printlevel mini
|  5>     print[ P_Basis ] 0
|  6>     print[ P_SCFInfo ] 1
|  7>     print[ P_SCFIterInfo ] 1
|  8>     print[ P_OrbEn ] 0
|  9>     print[ P_Cartesian ] 0
| 10> end
| 11> *xyz 0 1
| 12>  N        2.7211240000     1.0139890000     0.8404440000
| 13>  C        2.2989720000     0.0165010000    -0.1260900000
| 14>  C        2.8483960000    -1.3344470000     0.2530600000
| 15>  O        4.2547620000    -1.2794390000     0.1546570000
| 16>  C        4.8633250000    -2.4685000000     0.5854810000
| 17>  C        6.3088610000    -2.3650080000     0.4776240000
| 18>  C        7.5039210000    -2.3052230000     0.3994990000
| 19>  H        2.3830770000     1.9315600000     0.5813520000
| 20>  H        3.7329920000     1.0585050000     0.8543270000
| 21>  H        2.6038270000     0.2327180000    -1.1618910000
| 22>  H        1.2065040000    -0.0489080000    -0.1155420000
| 23>  H        2.4509850000    -2.1111200000    -0.4175520000
| 24>  H        2.5518930000    -1.5783960000     1.2836530000
| 25>  H        4.5157440000    -3.3214200000    -0.0187070000
| 26>  H        4.5919970000    -2.6842350000     1.6305800000
| 27>  H        8.5642190000    -2.2462570000     0.3280030000
| 28> *
| 29>
| 30>                          ****END OF INPUT****
 Total Charge           Charge          ....    0
 Multiplicity           Mult            ....    1
 Number of Electrons    NEL             ....   54
 Basis Dimension        Dim             ....  143

MULLIKEN ATOMIC CHARGES
-----------------------
   0 N :   -0.220535
   1 C :    0.077303
   2 C :    0.148992
   3 O :   -0.350542
   4 C :    0.243872
   5 C :    0.310956
   6 C :   -0.446338
   7 H :    0.086828
   8 H :    0.096118
   9 H :    0.000319
  10 H :    0.014287
  11 H :   -0.002250
  12 H :   -0.005302
  13 H :    0.020224
  14 H :    0.021349
  15 H :    0.004720
Sum of atomic charges:   -0.0000000

LOEWDIN ATOMIC CHARGES
----------------------
   0 N :   -0.111335
   1 C :   -0.004909
   2 C :    0.055468
   3 O :   -0.143504
   4 C :    0.056249
   5 C :   -0.028506
   6 C :   -0.063409
   7 H :    0.051964
   8 H :    0.050793
   9 H :    0.005002
  10 H :    0.027091
  11 H :    0.006620
  12 H :    0.006603
  13 H :    0.027437
  14 H :    0.028461
  15 H :    0.035975

  Mayer bond orders larger than 0.1
B(  0-N ,  1-C ) :   1.0992 B(  0-N ,  7-H ) :   0.9663 B(  0-N ,  8-H ) :   0.9663
B(  1-C ,  2-C ) :   1.0950 B(  1-C ,  9-H ) :   0.9178 B(  1-C , 10-H ) :   0.9251
B(  2-C ,  3-O ) :   0.9949 B(  2-C , 11-H ) :   0.9276 B(  2-C , 12-H ) :   0.9167
B(  3-O ,  4-C ) :   1.0345 B(  4-C ,  5-C ) :   1.0141 B(  4-C , 13-H ) :   0.9023
B(  4-C , 14-H ) :   0.9034 B(  5-C ,  6-C ) :   2.4013 B(  5-C , 15-H ) :  -0.1014
B(  6-C , 15-H ) :   1.0925

FINAL SINGLE POINT ENERGY      -325.170770206333

DIPOLE MOMENT
-------------
                                X             Y             Z
Electronic contribution:      5.45174      -1.82674       0.08583
Nuclear contribution   :     -5.63892       1.72298      -0.31367
                        -----------------------------------------
Total Dipole Moment    :     -0.18718      -0.10377      -0.22784
                        -----------------------------------------
Magnitude (a.u.)       :      0.31259
Magnitude (Debye)      :      0.79454

                             ****ORCA TERMINATED NORMALLY****
TOTAL RUN TIME: 0 days 0 hours 0 minutes 6 seconds 792 msec
