                         Program Version 3.0.3 - RELEASE   -
|  1> ! RI PBE def2-SVP def2-SVP/J NBO PAL2
|  2> % maxcore 2000
|  3> % output
|  4>     # printlevel mini
|  5>     print[ P_Basis ] 0
|  6>     print[ P_SCFInfo ] 1
|  7>     print[ P_SCFIterInfo ] 1
|  8>     print[ P_OrbEn ] 0
|  9>     print[ P_Cartesian ] 0
| 10> end
| 11> *xyz 0 1
| 12>  N        2.8719200000     1.3041470000    -0.3707950000
| 13>  C        2.3717180000     0.0092940000     0.0568310000
| 14>  C        2.8148570000    -0.2856170000     1.4671050000
| 15>  O        4.2147190000    -0.4338590000     1.4825400000
| 16>  C        4.7235330000    -0.6878730000     2.7703310000
| 17>  C        6.2241650000    -0.8036500000     2.6871460000
| 18>  N        6.8107880000     0.4725730000     2.3172320000
| 19>  H        2.6097730000     1.4918100000    -1.3297870000
| 20>  H        3.8836690000     1.3025930000    -0.3315830000
| 21>  H        2.6860950000    -0.8294750000    -0.5840240000
| 22>  H        1.2775440000     0.0336220000     0.0457920000
| 23>  H        2.3349200000    -1.2088320000     1.8263450000
| 24>  H        2.5152090000     0.5392230000     2.1297150000
| 25>  H        4.2961230000    -1.6219010000     3.1661010000
| 26>  H        4.4523680000     0.1314410000     3.4517970000
| 27>  H        6.4669810000    -1.6279890000     1.9982570000
| 28>  H        6.5953510000    -1.0878780000     3.6767750000
| 29>  H        6.4474910000     0.7604760000     1.4170640000
| 30>  H        7.8149650000     0.3926940000     2.2231390000
| 31> *
| 32>
| 33>                          ****END OF INPUT****
 Total Charge           Charge          ....    0
 Multiplicity           Mult            ....    1
 Number of Electrons    NEL             ....   58
 Basis Dimension        Dim             ....  158

MULLIKEN ATOMIC CHARGES
-----------------------
   0 N :   -0.222240
   1 C :    0.073988
   2 C :    0.149466
   3 O :   -0.370541
   4 C :    0.153452
   5 C :    0.097006
   6 N :   -0.229810
   7 H :    0.087024
   8 H :    0.091089
   9 H :   -0.001868
  10 H :    0.012142
  11 H :   -0.008352
  12 H :    0.002262
  13 H :   -0.012193
  14 H :    0.003088
  15 H :   -0.004628
  16 H :    0.000413
  17 H :    0.090140
  18 H :    0.089562
Sum of atomic charges:   -0.0000000

LOEWDIN ATOMIC CHARGES
----------------------
   0 N :   -0.112272
   1 C :   -0.006658
   2 C :    0.055078
   3 O :   -0.155655
   4 C :    0.055966
   5 C :   -0.003160
   6 N :   -0.113956
   7 H :    0.051728
   8 H :    0.047331
   9 H :    0.003071
  10 H :    0.026403
  11 H :    0.004664
  12 H :    0.008172
  13 H :    0.004079
  14 H :    0.008479
  15 H :    0.002655
  16 H :    0.024490
  17 H :    0.047238
  18 H :    0.052349

  Mayer bond orders larger than 0.1
B(  0-N ,  1-C ) :   1.0910 B(  0-N ,  7-H ) :   0.9662 B(  0-N ,  8-H ) :   0.9674
B(  1-C ,  2-C ) :   1.0955 B(  1-C ,  9-H ) :   0.9172 B(  1-C , 10-H ) :   0.9254
B(  2-C ,  3-O ) :   1.0043 B(  2-C , 11-H ) :   0.9259 B(  2-C , 12-H ) :   0.9201
B(  3-O ,  4-C ) :   1.0010 B(  4-C ,  5-C ) :   1.0966 B(  4-C , 13-H ) :   0.9244
B(  4-C , 14-H ) :   0.9212 B(  5-C ,  6-N ) :   1.0873 B(  5-C , 15-H ) :   0.9189
B(  5-C , 16-H ) :   0.9216 B(  6-N , 17-H ) :   0.9657 B(  6-N , 18-H ) :   0.9674

FINAL SINGLE POINT ENERGY      -343.658739784100

DIPOLE MOMENT
-------------
                                X             Y             Z
Electronic contribution:      0.44595       0.55209      -0.48382
Nuclear contribution   :     -0.28568      -1.06969       0.08860
                        -----------------------------------------
Total Dipole Moment    :      0.16028      -0.51760      -0.39522
                        -----------------------------------------
Magnitude (a.u.)       :      0.67067
Magnitude (Debye)      :      1.70471

                             ****ORCA TERMINATED NORMALLY****
TOTAL RUN TIME: 0 days 0 hours 0 minutes 7 seconds 742 msec
