                         Program Version 3.0.3 - RELEASE   -
|  1> ! RI PBE def2-SVP def2-SVP/J NBO PAL2
|  2> % maxcore 2000
|  3> % output
|  4>     # printlevel mini
|  5>     print[ P_Basis ] 0
|  6>     print[ P_SCFInfo ] 1
|  7>     print[ P_SCFIterInfo ] 1
|  8>     print[ P_OrbEn ] 0
|  9>     print[ P_Cartesian ] 0
| 10> end
| 11> *xyz 0 1
| 12>  N        0.8756340000    -0.0200720000     0.0701300000
| 13>  C        2.2169940000    -0.0291120000     0.0681320000
| 14>  C        2.8240290000     1.2766350000     0.4519980000
| 15>  O        2.1404410000     2.2269890000     0.7308690000
| 16>  C        3.0113150000    -1.0855910000    -0.2417960000
| 17>  C        4.4200580000    -1.0197740000    -0.2217170000
| 18>  N        5.5751150000    -1.0092110000    -0.2180530000
| 19>  H        0.4205330000     0.8416650000     0.3227830000
| 20>  H        0.3292420000    -0.8257040000    -0.1671170000
| 21>  H        3.9254260000     1.3123340000     0.4632540000
| 22>  H        2.5814530000    -2.0411680000    -0.5227340000
| 23> *
| 24>
| 25>                          ****END OF INPUT****
 Total Charge           Charge          ....    0
 Multiplicity           Mult            ....    1
 Number of Electrons    NEL             ....   50
 Basis Dimension        Dim             ....  118

MULLIKEN ATOMIC CHARGES
-----------------------
   0 N :   -0.010089
   1 C :   -0.077240
   2 C :    0.168023
   3 O :   -0.153057
   4 C :   -0.106038
   5 C :   -0.141751
   6 N :    0.025081
   7 H :    0.120647
   8 H :    0.121701
   9 H :    0.028841
  10 H :    0.023882
Sum of atomic charges:   -0.0000000

LOEWDIN ATOMIC CHARGES
----------------------
   0 N :    0.051650
   1 C :   -0.018247
   2 C :    0.097502
   3 O :   -0.095275
   4 C :   -0.119586
   5 C :   -0.060665
   6 N :   -0.074686
   7 H :    0.074362
   8 H :    0.080729
   9 H :    0.015974
  10 H :    0.048243

  Mayer bond orders larger than 0.1
B(  0-N ,  1-C ) :   1.3813 B(  0-N ,  7-H ) :   0.9115 B(  0-N ,  8-H ) :   0.9462
B(  1-C ,  2-C ) :   0.9818 B(  1-C ,  4-C ) :   1.5268 B(  2-C ,  3-O ) :   2.1276
B(  2-C ,  9-H ) :   0.9302 B(  4-C ,  5-C ) :   1.1710 B(  4-C , 10-H ) :   0.9466
B(  5-C ,  6-N ) :   2.8910

FINAL SINGLE POINT ENERGY      -338.880431691118

DIPOLE MOMENT
-------------
                                X             Y             Z
Electronic contribution:      2.21037       0.60712       0.17642
Nuclear contribution   :     -4.20293      -1.04225      -0.30865
                        -----------------------------------------
Total Dipole Moment    :     -1.99256      -0.43512      -0.13224
                        -----------------------------------------
Magnitude (a.u.)       :      2.04380
Magnitude (Debye)      :      5.19492

                             ****ORCA TERMINATED NORMALLY****
TOTAL RUN TIME: 0 days 0 hours 0 minutes 5 seconds 248 msec
