                         Program Version 3.0.3 - RELEASE   -
|  1> ! RI PBE def2-SVP def2-SVP/J NBO PAL2
|  2> % maxcore 2000
|  3> % output
|  4>     # printlevel mini
|  5>     print[ P_Basis ] 0
|  6>     print[ P_SCFInfo ] 1
|  7>     print[ P_SCFIterInfo ] 1
|  8>     print[ P_OrbEn ] 0
|  9>     print[ P_Cartesian ] 0
| 10> end
| 11> *xyz 0 1
| 12>  N        0.9474280000    -0.1157820000    -0.1305900000
| 13>  C        2.2984650000    -0.0789080000    -0.1261710000
| 14>  C        2.9291990000    -1.0940590000     0.7929850000
| 15>  O        2.2179270000    -2.3140990000     0.8131830000
| 16>  C        3.0347800000     0.8236640000    -0.8174970000
| 17>  C        4.4430330000     0.8419510000    -0.7665000000
| 18>  N        5.5984680000     0.8646990000    -0.7405020000
| 19>  H        0.5190790000    -0.9571420000     0.2187340000
| 20>  H        0.4321920000     0.4211630000    -0.8048660000
| 21>  H        2.8906830000    -0.7029780000     1.8139820000
| 22>  H        3.9807870000    -1.2295650000     0.5300280000
| 23>  H        2.4604060000    -2.8210730000     0.0335170000
| 24>  H        2.5563240000     1.5822990000    -1.4269920000
| 25> *
| 26>
| 27>                          ****END OF INPUT****
 Total Charge           Charge          ....    0
 Multiplicity           Mult            ....    1
 Number of Electrons    NEL             ....   52
 Basis Dimension        Dim             ....  128

MULLIKEN ATOMIC CHARGES
-----------------------
   0 N :   -0.025198
   1 C :   -0.175845
   2 C :    0.276260
   3 O :   -0.285462
   4 C :   -0.120541
   5 C :   -0.157051
   6 N :    0.006098
   7 H :    0.109964
   8 H :    0.116286
   9 H :    0.047317
  10 H :    0.035548
  11 H :    0.163553
  12 H :    0.009072
Sum of atomic charges:   -0.0000000

LOEWDIN ATOMIC CHARGES
----------------------
   0 N :    0.035605
   1 C :    0.007505
   2 C :    0.064485
   3 O :   -0.108641
   4 C :   -0.171898
   5 C :   -0.062799
   6 N :   -0.100741
   7 H :    0.066228
   8 H :    0.076623
   9 H :    0.042553
  10 H :    0.030723
  11 H :    0.079359
  12 H :    0.040999

  Mayer bond orders larger than 0.1
B(  0-N ,  1-C ) :   1.3378 B(  0-N ,  7-H ) :   0.9203 B(  0-N ,  8-H ) :   0.9491
B(  1-C ,  2-C ) :   1.0201 B(  1-C ,  4-C ) :   1.5929 B(  2-C ,  3-O ) :   1.0400
B(  2-C ,  9-H ) :   0.9123 B(  2-C , 10-H ) :   0.9179 B(  3-O , 11-H ) :   0.9831
B(  4-C ,  5-C ) :   1.1697 B(  4-C , 12-H ) :   0.9428 B(  5-C ,  6-N ) :   2.8964

FINAL SINGLE POINT ENERGY      -340.074736891795

DIPOLE MOMENT
-------------
                                X             Y             Z
Electronic contribution:      2.69505       1.42238      -1.12975
Nuclear contribution   :     -4.75815      -2.10447       0.91630
                        -----------------------------------------
Total Dipole Moment    :     -2.06310      -0.68209      -0.21344
                        -----------------------------------------
Magnitude (a.u.)       :      2.18339
Magnitude (Debye)      :      5.54973

                             ****ORCA TERMINATED NORMALLY****
TOTAL RUN TIME: 0 days 0 hours 0 minutes 5 seconds 851 msec
