                         Program Version 3.0.3 - RELEASE   -
|  1> ! RI PBE def2-SVP def2-SVP/J NBO PAL2
|  2> % maxcore 2000
|  3> % output
|  4>     # printlevel mini
|  5>     print[ P_Basis ] 0
|  6>     print[ P_SCFInfo ] 1
|  7>     print[ P_SCFIterInfo ] 1
|  8>     print[ P_OrbEn ] 0
|  9>     print[ P_Cartesian ] 0
| 10> end
| 11> *xyz 0 1
| 12>  N        1.0371460000    -1.6228140000    -0.8202270000
| 13>  C        1.2567010000    -0.5498160000     0.1331090000
| 14>  C        2.5282340000    -0.7925430000     0.9048840000
| 15>  O        3.6165670000    -0.7174160000     0.0117240000
| 16>  C        4.8543200000    -1.0170290000     0.6113830000
| 17>  C        5.9300170000    -0.7604290000    -0.4132620000
| 18>  O        5.9564830000     0.5866280000    -0.8195130000
| 19>  H        0.2025510000    -1.4546080000    -1.3665920000
| 20>  H        1.8166830000    -1.6638050000    -1.4653710000
| 21>  H        0.4269780000    -0.5346520000     0.8465340000
| 22>  H        1.3143740000     0.4526250000    -0.3199640000
| 23>  H        2.4929900000    -1.7887830000     1.3680030000
| 24>  H        2.6418650000    -0.0424600000     1.7012280000
| 25>  H        4.8817600000    -2.0659380000     0.9424120000
| 26>  H        5.0132620000    -0.3734610000     1.4892350000
| 27>  H        5.7766210000    -1.4301620000    -1.2714430000
| 28>  H        6.9076420000    -0.9867380000     0.0189260000
| 29>  H        5.0522150000     0.8196130000    -1.0526550000
| 30> *
| 31>
| 32>                          ****END OF INPUT****
 Total Charge           Charge          ....    0
 Multiplicity           Mult            ....    1
 Number of Electrons    NEL             ....   58
 Basis Dimension        Dim             ....  153

MULLIKEN ATOMIC CHARGES
-----------------------
   0 N :   -0.220675
   1 C :    0.079242
   2 C :    0.149217
   3 O :   -0.378112
   4 C :    0.133572
   5 C :    0.184506
   6 O :   -0.294657
   7 H :    0.088537
   8 H :    0.091052
   9 H :    0.012566
  10 H :   -0.006123
  11 H :   -0.000853
  12 H :    0.002902
  13 H :   -0.004002
  14 H :   -0.000816
  15 H :    0.004102
  16 H :    0.008156
  17 H :    0.151385
Sum of atomic charges:   -0.0000000

LOEWDIN ATOMIC CHARGES
----------------------
   0 N :   -0.111560
   1 C :   -0.004945
   2 C :    0.056217
   3 O :   -0.156673
   4 C :    0.041167
   5 C :    0.045067
   6 O :   -0.123789
   7 H :    0.052427
   8 H :    0.048029
   9 H :    0.027152
  10 H :    0.002074
  11 H :    0.008471
  12 H :    0.007875
  13 H :    0.008934
  14 H :    0.006792
  15 H :    0.007457
  16 H :    0.024435
  17 H :    0.060869

  Mayer bond orders larger than 0.1
B(  0-N ,  1-C ) :   1.0935 B(  0-N ,  7-H ) :   0.9674 B(  0-N ,  8-H ) :   0.9661
B(  1-C ,  2-C ) :   1.0961 B(  1-C ,  9-H ) :   0.9265 B(  1-C , 10-H ) :   0.9167
B(  2-C ,  3-O ) :   0.9936 B(  2-C , 11-H ) :   0.9184 B(  2-C , 12-H ) :   0.9308
B(  3-O ,  4-C ) :   0.9891 B(  4-C ,  5-C ) :   1.0813 B(  4-C , 13-H ) :   0.9191
B(  4-C , 14-H ) :   0.9187 B(  5-C ,  6-O ) :   1.0692 B(  5-C , 15-H ) :   0.9285
B(  5-C , 16-H ) :   0.9314 B(  6-O , 17-H ) :   0.9758

FINAL SINGLE POINT ENERGY      -363.500921773606

DIPOLE MOMENT
-------------
                                X             Y             Z
Electronic contribution:      2.41828       1.41766      -1.55465
Nuclear contribution   :     -2.96097      -1.48279       1.67256
                        -----------------------------------------
Total Dipole Moment    :     -0.54269      -0.06513       0.11791
                        -----------------------------------------
Magnitude (a.u.)       :      0.55916
Magnitude (Debye)      :      1.42127

                             ****ORCA TERMINATED NORMALLY****
TOTAL RUN TIME: 0 days 0 hours 0 minutes 7 seconds 637 msec
