                         Program Version 3.0.3 - RELEASE   -
|  1> ! RI PBE def2-SVP def2-SVP/J NBO PAL2
|  2> % maxcore 2000
|  3> % output
|  4>     # printlevel mini
|  5>     print[ P_Basis ] 0
|  6>     print[ P_SCFInfo ] 1
|  7>     print[ P_SCFIterInfo ] 1
|  8>     print[ P_OrbEn ] 0
|  9>     print[ P_Cartesian ] 0
| 10> end
| 11> *xyz 0 1
| 12>  N        1.2397020000     0.0260590000     0.1141680000
| 13>  C        2.5786390000     0.0618770000     0.1013550000
| 14>  C        3.1305530000     1.0938190000     1.0433010000
| 15>  O        2.3825600000     1.7729720000     1.7012840000
| 16>  C        3.3735810000    -0.7354460000    -0.6684000000
| 17>  C        4.8226380000    -0.7401890000    -0.7228420000
| 18>  O        5.6002840000    -0.0438400000    -0.1017690000
| 19>  H        0.7663450000     0.6689730000     0.7290060000
| 20>  H        0.7143800000    -0.6075720000    -0.4579190000
| 21>  H        4.2231520000     1.1769560000     1.0832590000
| 22>  H        2.8908890000    -1.4565370000    -1.3230370000
| 23>  H        5.2195860000    -1.4924620000    -1.4365060000
| 24> *
| 25>
| 26>                          ****END OF INPUT****
 Total Charge           Charge          ....    0
 Multiplicity           Mult            ....    1
 Number of Electrons    NEL             ....   52
 Basis Dimension        Dim             ....  123

MULLIKEN ATOMIC CHARGES
-----------------------
   0 N :    0.005806
   1 C :   -0.059590
   2 C :    0.167692
   3 O :   -0.166734
   4 C :   -0.085650
   5 C :    0.114773
   6 O :   -0.195704
   7 H :    0.118292
   8 H :    0.119310
   9 H :    0.027411
  10 H :   -0.020626
  11 H :   -0.024981
Sum of atomic charges:    0.0000000

LOEWDIN ATOMIC CHARGES
----------------------
   0 N :    0.067931
   1 C :   -0.006622
   2 C :    0.101797
   3 O :   -0.100519
   4 C :   -0.142855
   5 C :    0.056448
   6 O :   -0.152782
   7 H :    0.071943
   8 H :    0.080010
   9 H :    0.009505
  10 H :    0.026078
  11 H :   -0.010933

  Mayer bond orders larger than 0.1
B(  0-N ,  1-C ) :   1.4148 B(  0-N ,  7-H ) :   0.9072 B(  0-N ,  8-H ) :   0.9449
B(  1-C ,  2-C ) :   0.9594 B(  1-C ,  4-C ) :   1.4794 B(  2-C ,  3-O ) :   2.1029
B(  2-C ,  9-H ) :   0.9284 B(  4-C ,  5-C ) :   1.1220 B(  4-C , 10-H ) :   0.9371
B(  5-C ,  6-O ) :   2.0340 B(  5-C , 11-H ) :   0.9237

FINAL SINGLE POINT ENERGY      -359.930749546396

DIPOLE MOMENT
-------------
                                X             Y             Z
Electronic contribution:      0.92207       1.94035       1.77562
Nuclear contribution   :     -2.46429      -2.65049      -2.38202
                        -----------------------------------------
Total Dipole Moment    :     -1.54222      -0.71014      -0.60640
                        -----------------------------------------
Magnitude (a.u.)       :      1.80291
Magnitude (Debye)      :      4.58263

                             ****ORCA TERMINATED NORMALLY****
TOTAL RUN TIME: 0 days 0 hours 0 minutes 5 seconds 576 msec
