                         Program Version 3.0.3 - RELEASE   -
|  1> ! RI PBE def2-SVP def2-SVP/J NBO PAL2
|  2> % maxcore 2000
|  3> % output
|  4>     # printlevel mini
|  5>     print[ P_Basis ] 0
|  6>     print[ P_SCFInfo ] 1
|  7>     print[ P_SCFIterInfo ] 1
|  8>     print[ P_OrbEn ] 0
|  9>     print[ P_Cartesian ] 0
| 10> end
| 11> *xyz 0 1
| 12>  N        2.2015770000    -0.7144200000    -1.0455720000
| 13>  C        2.5959510000     0.4609600000    -0.2838710000
| 14>  C        2.4792800000     1.7570000000    -1.0701410000
| 15>  O        3.2670440000     1.6290780000    -2.2382330000
| 16>  C        1.8004510000     0.5488830000     1.0081360000
| 17>  C        2.0253600000    -0.6292070000     1.9278040000
| 18>  O        1.2524870000    -0.4200470000     3.0964820000
| 19>  H        2.6907160000    -0.7111820000    -1.9334390000
| 20>  H        1.2105240000    -0.6633110000    -1.2613590000
| 21>  H        3.6584690000     0.3367320000    -0.0361200000
| 22>  H        2.8253440000     2.5984150000    -0.4537140000
| 23>  H        1.4228940000     1.9323630000    -1.3250010000
| 24>  H        3.1509300000     2.4123770000    -2.7791840000
| 25>  H        0.7293310000     0.6169530000     0.7804120000
| 26>  H        2.0648940000     1.4654490000     1.5451070000
| 27>  H        3.0947790000    -0.7017610000     2.1741540000
| 28>  H        1.7399160000    -1.5562850000     1.4193030000
| 29>  H        1.3249420000    -1.1994950000     3.6510480000
| 30> *
| 31>
| 32>                          ****END OF INPUT****
 Total Charge           Charge          ....    0
 Multiplicity           Mult            ....    1
 Number of Electrons    NEL             ....   58
 Basis Dimension        Dim             ....  153

MULLIKEN ATOMIC CHARGES
-----------------------
   0 N :   -0.175874
   1 C :   -0.074203
   2 C :    0.189410
   3 O :   -0.273665
   4 C :   -0.021840
   5 C :    0.187999
   6 O :   -0.282185
   7 H :    0.090517
   8 H :    0.079138
   9 H :    0.006044
  10 H :   -0.010972
  11 H :   -0.020692
  12 H :    0.157215
  13 H :    0.004867
  14 H :    0.010503
  15 H :   -0.013655
  16 H :   -0.004659
  17 H :    0.152050
Sum of atomic charges:    0.0000000

LOEWDIN ATOMIC CHARGES
----------------------
   0 N :   -0.092267
   1 C :   -0.014195
   2 C :    0.041273
   3 O :   -0.128939
   4 C :   -0.050809
   5 C :    0.059854
   6 O :   -0.134289
   7 H :    0.050405
   8 H :    0.047554
   9 H :    0.023496
  10 H :    0.003362
  11 H :   -0.002087
  12 H :    0.071948
  13 H :    0.022414
  14 H :    0.027366
  15 H :    0.002703
  16 H :    0.003542
  17 H :    0.068670

  Mayer bond orders larger than 0.1
B(  0-N ,  1-C ) :   1.0850 B(  0-N ,  7-H ) :   0.9590 B(  0-N ,  8-H ) :   0.9655
B(  1-C ,  2-C ) :   1.0398 B(  1-C ,  4-C ) :   1.0440 B(  1-C ,  9-H ) :   0.8980
B(  2-C ,  3-O ) :   1.0979 B(  2-C , 10-H ) :   0.9208 B(  2-C , 11-H ) :   0.9168
B(  3-O , 12-H ) :   0.9770 B(  4-C ,  5-C ) :   1.0929 B(  4-C , 13-H ) :   0.9181
B(  4-C , 14-H ) :   0.9283 B(  5-C ,  6-O ) :   1.0930 B(  5-C , 15-H ) :   0.9291
B(  5-C , 16-H ) :   0.9290 B(  6-O , 17-H ) :   0.9815

FINAL SINGLE POINT ENERGY      -363.506815679340

DIPOLE MOMENT
-------------
                                X             Y             Z
Electronic contribution:      0.44320      -0.05369      -0.09941
Nuclear contribution   :     -0.54926       0.36605      -0.28015
                        -----------------------------------------
Total Dipole Moment    :     -0.10606       0.31236      -0.37956
                        -----------------------------------------
Magnitude (a.u.)       :      0.50288
Magnitude (Debye)      :      1.27821

                             ****ORCA TERMINATED NORMALLY****
TOTAL RUN TIME: 0 days 0 hours 0 minutes 7 seconds 230 msec
