                         Program Version 3.0.3 - RELEASE   -
|  1> ! RI PBE def2-SVP def2-SVP/J NBO PAL2
|  2> % maxcore 2000
|  3> % output
|  4>     # printlevel mini
|  5>     print[ P_Basis ] 0
|  6>     print[ P_SCFInfo ] 1
|  7>     print[ P_SCFIterInfo ] 1
|  8>     print[ P_OrbEn ] 0
|  9>     print[ P_Cartesian ] 0
| 10> end
| 11> *xyz 0 1
| 12>  N        1.1811460000    -0.1029170000     0.1592720000
| 13>  C        2.5262180000    -0.0926370000     0.0407840000
| 14>  C        3.2148690000     0.2843510000     1.3324050000
| 15>  O        2.4932620000     1.2575990000     2.0612210000
| 16>  C        3.1700530000    -0.4574130000    -1.0993560000
| 17>  C        4.5960650000    -0.4829380000    -1.2823960000
| 18>  O        5.1478810000    -0.8240580000    -2.3090490000
| 19>  H        0.7768090000     0.3621530000     0.9543000000
| 20>  H        0.6051000000    -0.2528910000    -0.6492030000
| 21>  H        4.2412560000     0.6016920000     1.1484980000
| 22>  H        3.2503540000    -0.6015220000     1.9727380000
| 23>  H        2.6336100000     2.1140240000     1.6477620000
| 24>  H        2.5846970000    -0.7677680000    -1.9609830000
| 25>  H        5.2144790000    -0.1603740000    -0.4178040000
| 26> *
| 27>
| 28>                          ****END OF INPUT****
 Total Charge           Charge          ....    0
 Multiplicity           Mult            ....    1
 Number of Electrons    NEL             ....   54
 Basis Dimension        Dim             ....  133

MULLIKEN ATOMIC CHARGES
-----------------------
   0 N :   -0.023188
   1 C :   -0.143212
   2 C :    0.249217
   3 O :   -0.287215
   4 C :   -0.049003
   5 C :    0.079818
   6 O :   -0.211522
   7 H :    0.108118
   8 H :    0.116628
   9 H :    0.020491
  10 H :    0.050512
  11 H :    0.162884
  12 H :   -0.027549
  13 H :   -0.045979
Sum of atomic charges:   -0.0000000

LOEWDIN ATOMIC CHARGES
----------------------
   0 N :    0.042393
   1 C :    0.003653
   2 C :    0.059460
   3 O :   -0.109969
   4 C :   -0.156490
   5 C :    0.037882
   6 O :   -0.160966
   7 H :    0.064326
   8 H :    0.077193
   9 H :    0.018343
  10 H :    0.042316
  11 H :    0.078189
  12 H :    0.026534
  13 H :   -0.022865

  Mayer bond orders larger than 0.1
B(  0-N ,  1-C ) :   1.3415 B(  0-N ,  7-H ) :   0.9199 B(  0-N ,  8-H ) :   0.9465
B(  1-C ,  2-C ) :   1.0128 B(  1-C ,  4-C ) :   1.5004 B(  2-C ,  3-O ) :   1.0325
B(  2-C ,  9-H ) :   0.9263 B(  2-C , 10-H ) :   0.9147 B(  3-O , 11-H ) :   0.9825
B(  4-C ,  5-C ) :   1.1202 B(  4-C , 12-H ) :   0.9469 B(  5-C ,  6-O ) :   2.0446
B(  5-C , 13-H ) :   0.9293

FINAL SINGLE POINT ENERGY      -361.122367428309

DIPOLE MOMENT
-------------
                                X             Y             Z
Electronic contribution:      1.18543      -0.53139      -2.19672
Nuclear contribution   :     -2.69633       1.36419       3.25276
                        -----------------------------------------
Total Dipole Moment    :     -1.51090       0.83280       1.05604
                        -----------------------------------------
Magnitude (a.u.)       :      2.02277
Magnitude (Debye)      :      5.14147

                             ****ORCA TERMINATED NORMALLY****
TOTAL RUN TIME: 0 days 0 hours 0 minutes 6 seconds 574 msec
