                         Program Version 3.0.3 - RELEASE   -
|  1> ! RI PBE def2-SVP def2-SVP/J NBO PAL2
|  2> % maxcore 2000
|  3> % output
|  4>     # printlevel mini
|  5>     print[ P_Basis ] 0
|  6>     print[ P_SCFInfo ] 1
|  7>     print[ P_SCFIterInfo ] 1
|  8>     print[ P_OrbEn ] 0
|  9>     print[ P_Cartesian ] 0
| 10> end
| 11> *xyz 0 1
| 12>  N        1.0723660000     0.5487630000     0.1193660000
| 13>  C        2.5238100000     0.5205040000    -0.0118090000
| 14>  C        3.1300540000     0.2157250000     1.3502660000
| 15>  O        2.4881860000    -0.9251430000     1.8871740000
| 16>  C        4.6236020000    -0.0276450000     1.2933650000
| 17>  C        5.2324210000    -0.3574670000     2.6480240000
| 18>  O        4.8768950000    -1.6327200000     3.1205630000
| 19>  H        0.6114900000     0.4008600000    -0.7672590000
| 20>  H        0.7513000000     1.4352750000     0.4878140000
| 21>  H        2.9574750000     1.4457170000    -0.4145340000
| 22>  H        2.7858670000    -0.2941790000    -0.6931700000
| 23>  H        2.9430200000     1.0792450000     2.0136880000
| 24>  H        1.5637030000    -0.8483890000     1.6014320000
| 25>  H        5.1044070000     0.8728960000     0.8944800000
| 26>  H        4.8320490000    -0.8505860000     0.6005750000
| 27>  H        4.9515450000     0.4261020000     3.3709080000
| 28>  H        6.3232850000    -0.3465110000     2.5731500000
| 29>  H        3.9256450000    -1.7253460000     2.9824670000
| 30> *
| 31>
| 32>                          ****END OF INPUT****
 Total Charge           Charge          ....    0
 Multiplicity           Mult            ....    1
 Number of Electrons    NEL             ....   58
 Basis Dimension        Dim             ....  153

MULLIKEN ATOMIC CHARGES
-----------------------
   0 N :   -0.215040
   1 C :    0.078186
   2 C :    0.053882
   3 O :   -0.281993
   4 C :   -0.038908
   5 C :    0.202383
   6 O :   -0.293349
   7 H :    0.105605
   8 H :    0.100650
   9 H :   -0.000172
  10 H :    0.015230
  11 H :   -0.017802
  12 H :    0.145517
  13 H :   -0.002635
  14 H :    0.014551
  15 H :   -0.017879
  16 H :    0.005211
  17 H :    0.146563
Sum of atomic charges:    0.0000000

LOEWDIN ATOMIC CHARGES
----------------------
   0 N :   -0.088710
   1 C :   -0.006379
   2 C :    0.034316
   3 O :   -0.114130
   4 C :   -0.068832
   5 C :    0.054418
   6 O :   -0.131542
   7 H :    0.060732
   8 H :    0.058443
   9 H :    0.008354
  10 H :    0.025093
  11 H :    0.001405
  12 H :    0.048240
  13 H :    0.029447
  14 H :    0.026741
  15 H :   -0.000254
  16 H :    0.017459
  17 H :    0.045200

  Mayer bond orders larger than 0.1
B(  0-N ,  1-C ) :   1.0914 B(  0-N ,  7-H ) :   0.9636 B(  0-N ,  8-H ) :   0.9671
B(  0-N , 12-H ) :   0.1225 B(  1-C ,  2-C ) :   1.0438 B(  1-C ,  9-H ) :   0.9268
B(  1-C , 10-H ) :   0.9241 B(  2-C ,  3-O ) :   1.0402 B(  2-C ,  4-C ) :   1.0737
B(  2-C , 11-H ) :   0.8958 B(  3-O , 12-H ) :   0.9292 B(  4-C ,  5-C ) :   1.0826
B(  4-C , 13-H ) :   0.9036 B(  4-C , 14-H ) :   0.9154 B(  5-C ,  6-O ) :   1.0992
B(  5-C , 15-H ) :   0.9191 B(  5-C , 16-H ) :   0.9362 B(  6-O , 17-H ) :   0.9610

FINAL SINGLE POINT ENERGY      -363.522093468147

DIPOLE MOMENT
-------------
                                X             Y             Z
Electronic contribution:     -0.49530      -2.96533       2.43716
Nuclear contribution   :     -0.48858       4.16145      -3.61515
                        -----------------------------------------
Total Dipole Moment    :     -0.98388       1.19612      -1.17799
                        -----------------------------------------
Magnitude (a.u.)       :      1.94586
Magnitude (Debye)      :      4.94599

                             ****ORCA TERMINATED NORMALLY****
TOTAL RUN TIME: 0 days 0 hours 0 minutes 7 seconds 876 msec
