                         Program Version 3.0.3 - RELEASE   -
|  1> ! RI PBE def2-SVP def2-SVP/J NBO PAL2
|  2> % maxcore 2000
|  3> % output
|  4>     # printlevel mini
|  5>     print[ P_Basis ] 0
|  6>     print[ P_SCFInfo ] 1
|  7>     print[ P_SCFIterInfo ] 1
|  8>     print[ P_OrbEn ] 0
|  9>     print[ P_Cartesian ] 0
| 10> end
| 11> *xyz 0 1
| 12>  N        1.4142680000    -0.6545810000    -1.1404230000
| 13>  C        2.2180980000    -0.4363130000    -0.1884460000
| 14>  C        2.5159300000     0.9457190000     0.3446730000
| 15>  O        2.0384100000     1.9334980000    -0.1372290000
| 16>  N        2.8533220000    -1.4423460000     0.5230470000
| 17>  C        3.1873790000    -2.6772400000    -0.1305280000
| 18>  C        4.2583850000    -1.7331400000     0.2808850000
| 19>  H        1.0207070000     0.2375160000    -1.4453620000
| 20>  H        3.2014400000     0.9872660000     1.2139310000
| 21>  H        2.9424400000    -2.7454590000    -1.1850500000
| 22>  H        3.0172340000    -3.5736420000     0.4545830000
| 23>  H        4.7567860000    -1.1777650000    -0.5081950000
| 24>  H        4.8551000000    -1.9339240000     1.1632340000
| 25> *
| 26>
| 27>                          ****END OF INPUT****
 Total Charge           Charge          ....    0
 Multiplicity           Mult            ....    1
 Number of Electrons    NEL             ....   52
 Basis Dimension        Dim             ....  128

MULLIKEN ATOMIC CHARGES
-----------------------
   0 N :   -0.033208
   1 C :   -0.179843
   2 C :    0.190056
   3 O :   -0.131023
   4 N :   -0.219372
   5 C :    0.066548
   6 C :    0.024929
   7 H :    0.095326
   8 H :   -0.012818
   9 H :    0.050928
  10 H :    0.045072
  11 H :    0.050906
  12 H :    0.052499
Sum of atomic charges:    0.0000000

LOEWDIN ATOMIC CHARGES
----------------------
   0 N :   -0.092561
   1 C :   -0.059252
   2 C :    0.079228
   3 O :   -0.080511
   4 N :   -0.059902
   5 C :    0.031440
   6 C :    0.025841
   7 H :    0.054072
   8 H :   -0.005337
   9 H :    0.026331
  10 H :    0.029725
  11 H :    0.024186
  12 H :    0.026740

  Mayer bond orders larger than 0.1
B(  0-N ,  1-C ) :   2.0115 B(  0-N ,  7-H ) :   0.8952 B(  1-C ,  2-C ) :   0.8942
B(  1-C ,  4-N ) :   1.0785 B(  2-C ,  3-O ) :   2.1773 B(  2-C ,  8-H ) :   0.9259
B(  4-N ,  5-C ) :   0.9564 B(  4-N ,  6-C ) :   0.9267 B(  5-C ,  6-C ) :   1.0825
B(  5-C ,  9-H ) :   0.9322 B(  5-C , 10-H ) :   0.9464 B(  6-C , 11-H ) :   0.9401
B(  6-C , 12-H ) :   0.9505

FINAL SINGLE POINT ENERGY      -340.041060506515

DIPOLE MOMENT
-------------
                                X             Y             Z
Electronic contribution:     -2.79939       4.06977       0.13633
Nuclear contribution   :      3.71584      -4.59416       0.13726
                        -----------------------------------------
Total Dipole Moment    :      0.91645      -0.52439       0.27359
                        -----------------------------------------
Magnitude (a.u.)       :      1.09074
Magnitude (Debye)      :      2.77245

                             ****ORCA TERMINATED NORMALLY****
TOTAL RUN TIME: 0 days 0 hours 0 minutes 6 seconds 334 msec
