                         Program Version 3.0.3 - RELEASE   -
|  1> ! RI PBE def2-SVP def2-SVP/J NBO PAL2
|  2> % maxcore 2000
|  3> % output
|  4>     # printlevel mini
|  5>     print[ P_Basis ] 0
|  6>     print[ P_SCFInfo ] 1
|  7>     print[ P_SCFIterInfo ] 1
|  8>     print[ P_OrbEn ] 0
|  9>     print[ P_Cartesian ] 0
| 10> end
| 11> *xyz 0 1
| 12>  N        1.9810130000     1.2075020000    -1.4142450000
| 13>  C        2.6110170000     0.7192430000    -0.2107660000
| 14>  C        3.6463990000    -0.3283170000    -0.5484600000
| 15>  O        3.6196340000    -0.9601090000    -1.5775900000
| 16>  N        4.5520180000    -0.5845770000     0.4670110000
| 17>  C        5.8989020000    -0.9945020000     0.1939630000
| 18>  C        5.6166570000     0.3169600000     0.8407180000
| 19>  H        1.0299350000     1.4992150000    -1.2400910000
| 20>  H        1.9672620000     0.4586860000    -2.0980680000
| 21>  H        1.9273370000     0.2272240000     0.5003220000
| 22>  H        3.0906660000     1.5327860000     0.3441090000
| 23>  H        6.2060410000    -0.9928860000    -0.8465820000
| 24>  H        6.2723320000    -1.8173800000     0.7930670000
| 25>  H        5.7544830000     1.2084030000     0.2359430000
| 26>  H        5.7791040000     0.4469400000     1.9052500000
| 27> *
| 28>
| 29>                          ****END OF INPUT****
 Total Charge           Charge          ....    0
 Multiplicity           Mult            ....    1
 Number of Electrons    NEL             ....   54
 Basis Dimension        Dim             ....  138

MULLIKEN ATOMIC CHARGES
-----------------------
   0 N :   -0.208730
   1 C :    0.101490
   2 C :    0.005732
   3 O :   -0.181498
   4 N :   -0.223611
   5 C :    0.045371
   6 C :    0.040797
   7 H :    0.088530
   8 H :    0.095408
   9 H :    0.028866
  10 H :    0.010843
  11 H :    0.050282
  12 H :    0.047832
  13 H :    0.052800
  14 H :    0.045889
Sum of atomic charges:   -0.0000000

LOEWDIN ATOMIC CHARGES
----------------------
   0 N :   -0.111911
   1 C :   -0.020100
   2 C :    0.029674
   3 O :   -0.147496
   4 N :   -0.066197
   5 C :    0.028678
   6 C :    0.030001
   7 H :    0.053936
   8 H :    0.047585
   9 H :    0.028975
  10 H :    0.023112
  11 H :    0.025682
  12 H :    0.027708
  13 H :    0.025376
  14 H :    0.024977

  Mayer bond orders larger than 0.1
B(  0-N ,  1-C ) :   1.1162 B(  0-N ,  7-H ) :   0.9590 B(  0-N ,  8-H ) :   0.9462
B(  1-C ,  2-C ) :   0.9699 B(  1-C ,  9-H ) :   0.8916 B(  1-C , 10-H ) :   0.9198
B(  2-C ,  3-O ) :   2.1035 B(  2-C ,  4-N ) :   1.0945 B(  4-N ,  5-C ) :   0.9506
B(  4-N ,  6-C ) :   0.9411 B(  5-C ,  6-C ) :   1.0821 B(  5-C , 11-H ) :   0.9392
B(  5-C , 12-H ) :   0.9486 B(  6-C , 13-H ) :   0.9403 B(  6-C , 14-H ) :   0.9474

FINAL SINGLE POINT ENERGY      -341.261449314561

DIPOLE MOMENT
-------------
                                X             Y             Z
Electronic contribution:     -0.16774      -2.65720      -1.42500
Nuclear contribution   :      0.41126       2.95751       2.26902
                        -----------------------------------------
Total Dipole Moment    :      0.24352       0.30031       0.84402
                        -----------------------------------------
Magnitude (a.u.)       :      0.92836
Magnitude (Debye)      :      2.35971

                             ****ORCA TERMINATED NORMALLY****
TOTAL RUN TIME: 0 days 0 hours 0 minutes 7 seconds 143 msec
