                         Program Version 3.0.3 - RELEASE   -
|  1> ! RI PBE def2-SVP def2-SVP/J NBO PAL2
|  2> % maxcore 2000
|  3> % output
|  4>     # printlevel mini
|  5>     print[ P_Basis ] 0
|  6>     print[ P_SCFInfo ] 1
|  7>     print[ P_SCFIterInfo ] 1
|  8>     print[ P_OrbEn ] 0
|  9>     print[ P_Cartesian ] 0
| 10> end
| 11> *xyz 0 1
| 12>  N        2.0088760000    -1.2270220000    -0.4101360000
| 13>  C        1.7066060000    -0.0736280000     0.4208100000
| 14>  C        2.9415480000     0.6010330000     1.0006980000
| 15>  O        2.8557650000     1.4171880000     1.8932400000
| 16>  N        4.1063140000     0.2237650000     0.4092970000
| 17>  C        5.3413880000     0.7348610000     0.7600310000
| 18>  C        6.4918590000     0.3904340000     0.1899190000
| 19>  H        1.3212350000    -1.3508190000    -1.1391280000
| 20>  H        2.0326260000    -2.0788580000     0.1345270000
| 21>  H        1.0392600000    -0.2764410000     1.2651270000
| 22>  H        1.2105450000     0.6883480000    -0.1871590000
| 23>  H        4.0098960000    -0.4680610000    -0.3238470000
| 24>  H        5.2825340000     1.4603100000     1.5631280000
| 25>  H        6.5450000000    -0.3347890000    -0.6146480000
| 26>  H        7.4167370000     0.8383600000     0.5244420000
| 27> *
| 28>
| 29>                          ****END OF INPUT****
 Total Charge           Charge          ....    0
 Multiplicity           Mult            ....    1
 Number of Electrons    NEL             ....   54
 Basis Dimension        Dim             ....  138

MULLIKEN ATOMIC CHARGES
-----------------------
   0 N :   -0.219317
   1 C :    0.073803
   2 C :   -0.025172
   3 O :   -0.211386
   4 N :   -0.047636
   5 C :    0.038582
   6 C :   -0.069098
   7 H :    0.106145
   8 H :    0.106779
   9 H :    0.031747
  10 H :    0.048203
  11 H :    0.103447
  12 H :    0.023432
  13 H :    0.012935
  14 H :    0.027537
Sum of atomic charges:   -0.0000000

LOEWDIN ATOMIC CHARGES
----------------------
   0 N :   -0.093715
   1 C :   -0.020733
   2 C :    0.013815
   3 O :   -0.184350
   4 N :    0.040786
   5 C :    0.018264
   6 C :   -0.113725
   7 H :    0.061776
   8 H :    0.061167
   9 H :    0.026988
  10 H :    0.045645
  11 H :    0.063868
  12 H :    0.030875
  13 H :    0.019565
  14 H :    0.029774

  Mayer bond orders larger than 0.1
B(  0-N ,  1-C ) :   1.0952 B(  0-N ,  7-H ) :   0.9613 B(  0-N ,  8-H ) :   0.9724
B(  0-N , 11-H ) :   0.1159 B(  1-C ,  2-C ) :   0.9422 B(  1-C ,  9-H ) :   0.9224
B(  1-C , 10-H ) :   0.9202 B(  2-C ,  3-O ) :   2.0700 B(  2-C ,  4-N ) :   1.2047
B(  4-N ,  5-C ) :   1.1209 B(  4-N , 11-H ) :   0.8762 B(  5-C ,  6-C ) :   1.8890
B(  5-C , 12-H ) :   0.9549 B(  6-C , 13-H ) :   0.9515 B(  6-C , 14-H ) :   0.9451

FINAL SINGLE POINT ENERGY      -341.301343620824

DIPOLE MOMENT
-------------
                                X             Y             Z
Electronic contribution:     -0.77494       2.28142       2.41353
Nuclear contribution   :      0.19103      -3.43869      -3.33795
                        -----------------------------------------
Total Dipole Moment    :     -0.58392      -1.15727      -0.92442
                        -----------------------------------------
Magnitude (a.u.)       :      1.59210
Magnitude (Debye)      :      4.04680

                             ****ORCA TERMINATED NORMALLY****
TOTAL RUN TIME: 0 days 0 hours 0 minutes 6 seconds 855 msec
