                         Program Version 3.0.3 - RELEASE   -
|  1> ! RI PBE def2-SVP def2-SVP/J NBO PAL2
|  2> % maxcore 2000
|  3> % output
|  4>     # printlevel mini
|  5>     print[ P_Basis ] 0
|  6>     print[ P_SCFInfo ] 1
|  7>     print[ P_SCFIterInfo ] 1
|  8>     print[ P_OrbEn ] 0
|  9>     print[ P_Cartesian ] 0
| 10> end
| 11> *xyz 0 1
| 12>  N        1.5106480000     0.7873320000     0.9647680000
| 13>  C        2.6532640000     0.1093210000     0.4045210000
| 14>  C        3.2419190000     0.9133250000    -0.7190480000
| 15>  O        2.6863080000     1.8057470000    -1.2929750000
| 16>  O        4.4807400000     0.4646720000    -1.0236960000
| 17>  C        5.1395760000     1.0535720000    -2.0750210000
| 18>  C        6.3441020000     0.6372970000    -2.4204210000
| 19>  H        0.8556780000     0.1338560000     1.3690440000
| 20>  H        1.0384960000     1.3142550000     0.2398630000
| 21>  H        2.4411780000    -0.8823250000    -0.0289570000
| 22>  H        3.4332750000    -0.0488380000     1.1559150000
| 23>  H        4.5929380000     1.8526770000    -2.5588990000
| 24>  H        6.8419370000    -0.1680100000    -1.8952650000
| 25>  H        6.8520620000     1.1111280000    -3.2485180000
| 26> *
| 27>
| 28>                          ****END OF INPUT****
 Total Charge           Charge          ....    0
 Multiplicity           Mult            ....    1
 Number of Electrons    NEL             ....   54
 Basis Dimension        Dim             ....  133

MULLIKEN ATOMIC CHARGES
-----------------------
   0 N :   -0.207723
   1 C :    0.098612
   2 C :    0.081441
   3 O :   -0.179631
   4 O :   -0.207535
   5 C :    0.102130
   6 C :   -0.053326
   7 H :    0.092297
   8 H :    0.097865
   9 H :    0.031676
  10 H :    0.037080
  11 H :    0.030235
  12 H :    0.036814
  13 H :    0.040063
Sum of atomic charges:   -0.0000000

LOEWDIN ATOMIC CHARGES
----------------------
   0 N :   -0.106543
   1 C :   -0.019190
   2 C :    0.053391
   3 O :   -0.131865
   4 O :   -0.023014
   5 C :    0.047883
   6 C :   -0.086401
   7 H :    0.056339
   8 H :    0.050949
   9 H :    0.030619
  10 H :    0.036192
  11 H :    0.021857
  12 H :    0.032469
  13 H :    0.037313

  Mayer bond orders larger than 0.1
B(  0-N ,  1-C ) :   1.1121 B(  0-N ,  7-H ) :   0.9609 B(  0-N ,  8-H ) :   0.9511
B(  1-C ,  2-C ) :   0.9894 B(  1-C ,  9-H ) :   0.8933 B(  1-C , 10-H ) :   0.9116
B(  2-C ,  3-O ) :   2.0809 B(  2-C ,  4-O ) :   1.1238 B(  4-O ,  5-C ) :   1.0194
B(  5-C ,  6-C ) :   1.9432 B(  5-C , 11-H ) :   0.9536 B(  6-C , 12-H ) :   0.9462
B(  6-C , 13-H ) :   0.9420

FINAL SINGLE POINT ENERGY      -361.123851759405

DIPOLE MOMENT
-------------
                                X             Y             Z
Electronic contribution:     -0.32412       1.56640      -1.03331
Nuclear contribution   :      0.34344      -2.29272       0.94879
                        -----------------------------------------
Total Dipole Moment    :      0.01932      -0.72632      -0.08452
                        -----------------------------------------
Magnitude (a.u.)       :      0.73148
Magnitude (Debye)      :      1.85928

                             ****ORCA TERMINATED NORMALLY****
TOTAL RUN TIME: 0 days 0 hours 0 minutes 6 seconds 376 msec
