                         Program Version 3.0.3 - RELEASE   -
|  1> ! RI PBE def2-SVP def2-SVP/J NBO PAL2
|  2> % maxcore 2000
|  3> % output
|  4>     # printlevel mini
|  5>     print[ P_Basis ] 0
|  6>     print[ P_SCFInfo ] 1
|  7>     print[ P_SCFIterInfo ] 1
|  8>     print[ P_OrbEn ] 0
|  9>     print[ P_Cartesian ] 0
| 10> end
| 11> *xyz 0 1
| 12>  N        1.4574680000     0.7657980000    -0.4298330000
| 13>  C        2.2126830000    -0.2316940000    -0.2641700000
| 14>  N        3.4727180000    -0.3116610000    -0.8448470000
| 15>  C        3.7420480000    -1.2144170000    -1.9285480000
| 16>  C        3.7054090000     0.2708200000    -2.1429560000
| 17>  C        4.9958570000     0.9858930000    -2.3070000000
| 18>  O        5.2096820000     1.7919670000    -3.1680250000
| 19>  H        0.6143890000     0.6742380000     0.1299820000
| 20>  H        1.9985050000    -1.0949880000     0.3746000000
| 21>  H        2.9143690000    -1.7724220000    -2.3567130000
| 22>  H        4.6935540000    -1.7352480000    -1.8915720000
| 23>  H        2.8542260000     0.6846910000    -2.6734700000
| 24>  H        5.7715000000     0.6965230000    -1.5648470000
| 25> *
| 26>
| 27>                          ****END OF INPUT****
 Total Charge           Charge          ....    0
 Multiplicity           Mult            ....    1
 Number of Electrons    NEL             ....   52
 Basis Dimension        Dim             ....  128

MULLIKEN ATOMIC CHARGES
-----------------------
   0 N :   -0.119137
   1 C :    0.011528
   2 N :   -0.208394
   3 C :    0.096577
   4 C :   -0.059813
   5 C :    0.183947
   6 O :   -0.146205
   7 H :    0.104395
   8 H :    0.008931
   9 H :    0.053642
  10 H :    0.048615
  11 H :    0.043214
  12 H :   -0.017299
Sum of atomic charges:   -0.0000000

LOEWDIN ATOMIC CHARGES
----------------------
   0 N :   -0.127665
   1 C :    0.026122
   2 N :   -0.056494
   3 C :    0.045681
   4 C :   -0.015504
   5 C :    0.088121
   6 O :   -0.097263
   7 H :    0.058544
   8 H :    0.001526
   9 H :    0.028002
  10 H :    0.025741
  11 H :    0.032205
  12 H :   -0.009017

  Mayer bond orders larger than 0.1
B(  0-N ,  1-C ) :   1.9682 B(  0-N ,  7-H ) :   0.9309 B(  1-C ,  2-N ) :   1.0890
B(  1-C ,  8-H ) :   0.9440 B(  2-N ,  3-C ) :   0.9609 B(  2-N ,  4-C ) :   0.8611
B(  3-C ,  4-C ) :   0.9765 B(  3-C ,  9-H ) :   0.9331 B(  3-C , 10-H ) :   0.9432
B(  4-C ,  5-C ) :   0.9750 B(  4-C , 11-H ) :   0.9324 B(  5-C ,  6-O ) :   2.1879
B(  5-C , 12-H ) :   0.9220

FINAL SINGLE POINT ENERGY      -340.039659388306

DIPOLE MOMENT
-------------
                                X             Y             Z
Electronic contribution:      1.70626       2.69270      -0.95738
Nuclear contribution   :     -2.24102      -4.10081       1.47093
                        -----------------------------------------
Total Dipole Moment    :     -0.53476      -1.40811       0.51355
                        -----------------------------------------
Magnitude (a.u.)       :      1.59138
Magnitude (Debye)      :      4.04497

                             ****ORCA TERMINATED NORMALLY****
TOTAL RUN TIME: 0 days 0 hours 0 minutes 6 seconds 685 msec
