                         Program Version 3.0.3 - RELEASE   -
|  1> ! RI PBE def2-SVP def2-SVP/J NBO PAL2
|  2> % maxcore 2000
|  3> % output
|  4>     # printlevel mini
|  5>     print[ P_Basis ] 0
|  6>     print[ P_SCFInfo ] 1
|  7>     print[ P_SCFIterInfo ] 1
|  8>     print[ P_OrbEn ] 0
|  9>     print[ P_Cartesian ] 0
| 10> end
| 11> *xyz 0 1
| 12>  N        2.7234230000    -1.1342400000    -0.1789710000
| 13>  C        2.5173890000     0.0718120000     0.1342620000
| 14>  N        2.9991790000     1.1322260000    -0.6004720000
| 15>  C        2.8481850000     2.5690450000    -0.3713100000
| 16>  C        3.6826510000     2.8089330000    -1.6429210000
| 17>  C        3.7618800000     1.2863050000    -1.7626830000
| 18>  O        4.2571840000     0.5112710000    -2.5168760000
| 19>  H        2.2803680000    -1.7500420000     0.4964370000
| 20>  H        1.9456740000     0.4160810000     1.0051370000
| 21>  H        3.3079070000     2.9138690000     0.5574430000
| 22>  H        1.8129980000     2.9132520000    -0.4236710000
| 23>  H        4.6491070000     3.2886990000    -1.4917630000
| 24>  H        3.1591550000     3.2880790000    -2.4696220000
| 25> *
| 26>
| 27>                          ****END OF INPUT****
 Total Charge           Charge          ....    0
 Multiplicity           Mult            ....    1
 Number of Electrons    NEL             ....   52
 Basis Dimension        Dim             ....  128

MULLIKEN ATOMIC CHARGES
-----------------------
   0 N :   -0.101435
   1 C :    0.019573
   2 N :   -0.250280
   3 C :    0.170445
   4 C :   -0.109822
   5 C :    0.116601
   6 O :   -0.121478
   7 H :    0.103229
   8 H :   -0.004341
   9 H :    0.030941
  10 H :    0.032263
  11 H :    0.057572
  12 H :    0.056732
Sum of atomic charges:   -0.0000000

LOEWDIN ATOMIC CHARGES
----------------------
   0 N :   -0.116613
   1 C :    0.027450
   2 N :   -0.025379
   3 C :    0.052250
   4 C :   -0.060167
   5 C :    0.044067
   6 O :   -0.108670
   7 H :    0.057685
   8 H :   -0.003473
   9 H :    0.022461
  10 H :    0.022812
  11 H :    0.043949
  12 H :    0.043628

  Mayer bond orders larger than 0.1
B(  0-N ,  1-C ) :   1.9724 B(  0-N ,  7-H ) :   0.9314 B(  1-C ,  2-N ) :   1.0623
B(  1-C ,  8-H ) :   0.9351 B(  2-N ,  3-C ) :   1.0017 B(  2-N ,  5-C ) :   1.0479
B(  3-C ,  4-C ) :   1.1104 B(  3-C ,  9-H ) :   0.9352 B(  3-C , 10-H ) :   0.9344
B(  4-C ,  5-C ) :   0.9649 B(  4-C , 11-H ) :   0.9176 B(  4-C , 12-H ) :   0.9174
B(  5-C ,  6-O ) :   2.2143

FINAL SINGLE POINT ENERGY      -340.087674416560

DIPOLE MOMENT
-------------
                                X             Y             Z
Electronic contribution:      1.43403      -3.33153      -2.17824
Nuclear contribution   :     -2.22268       4.61649       3.38366
                        -----------------------------------------
Total Dipole Moment    :     -0.78864       1.28496       1.20541
                        -----------------------------------------
Magnitude (a.u.)       :      1.93031
Magnitude (Debye)      :      4.90646

                             ****ORCA TERMINATED NORMALLY****
TOTAL RUN TIME: 0 days 0 hours 0 minutes 6 seconds 348 msec
