                         Program Version 3.0.3 - RELEASE   -
|  1> ! RI PBE def2-SVP def2-SVP/J NBO PAL2
|  2> % maxcore 2000
|  3> % output
|  4>     # printlevel mini
|  5>     print[ P_Basis ] 0
|  6>     print[ P_SCFInfo ] 1
|  7>     print[ P_SCFIterInfo ] 1
|  8>     print[ P_OrbEn ] 0
|  9>     print[ P_Cartesian ] 0
| 10> end
| 11> *xyz 0 1
| 12>  N        2.2767750000    -1.4150890000     0.4721190000
| 13>  C        2.1708880000    -0.1577480000     0.5587060000
| 14>  N        3.2476370000     0.7101400000     0.5777950000
| 15>  C        3.2346710000     1.8182850000     1.5182810000
| 16>  C        4.0011600000     1.2755580000     2.7374930000
| 17>  C        4.6888800000     0.0320580000     2.1594270000
| 18>  O        4.4898850000     0.1110770000     0.7445500000
| 19>  H        1.3562490000    -1.8360160000     0.3933230000
| 20>  H        1.2301190000     0.4060310000     0.5610010000
| 21>  H        2.2098820000     2.1172960000     1.7390830000
| 22>  H        3.7579580000     2.6641910000     1.0698330000
| 23>  H        3.3262940000     1.0104600000     3.5521820000
| 24>  H        4.7149610000     2.0086700000     3.1139680000
| 25>  H        4.2418080000    -0.8913900000     2.5380640000
| 26>  H        5.7668440000     0.0081770000     2.3181850000
| 27> *
| 28>
| 29>                          ****END OF INPUT****
 Total Charge           Charge          ....    0
 Multiplicity           Mult            ....    1
 Number of Electrons    NEL             ....   54
 Basis Dimension        Dim             ....  138

MULLIKEN ATOMIC CHARGES
-----------------------
   0 N :   -0.122731
   1 C :    0.001617
   2 N :   -0.111732
   3 C :    0.146683
   4 C :   -0.099331
   5 C :    0.206643
   6 O :   -0.267457
   7 H :    0.097816
   8 H :   -0.010125
   9 H :    0.021951
  10 H :    0.033182
  11 H :    0.025070
  12 H :    0.026962
  13 H :    0.023100
  14 H :    0.028351
Sum of atomic charges:   -0.0000000

LOEWDIN ATOMIC CHARGES
----------------------
   0 N :   -0.151299
   1 C :   -0.001745
   2 N :    0.032882
   3 C :    0.021718
   4 C :   -0.068943
   5 C :    0.061267
   6 O :   -0.097528
   7 H :    0.053810
   8 H :   -0.004219
   9 H :    0.027083
  10 H :    0.025422
  11 H :    0.030472
  12 H :    0.032011
  13 H :    0.013855
  14 H :    0.025215

  Mayer bond orders larger than 0.1
B(  0-N ,  1-C ) :   1.9443 B(  0-N ,  7-H ) :   0.9295 B(  1-C ,  2-N ) :   1.0917
B(  1-C ,  8-H ) :   0.9296 B(  2-N ,  3-C ) :   0.9876 B(  2-N ,  6-O ) :   0.9521
B(  3-C ,  4-C ) :   1.0880 B(  3-C ,  9-H ) :   0.9327 B(  3-C , 10-H ) :   0.9415
B(  4-C ,  5-C ) :   1.1141 B(  4-C , 11-H ) :   0.9295 B(  4-C , 12-H ) :   0.9325
B(  5-C ,  6-O ) :   0.9801 B(  5-C , 13-H ) :   0.9383 B(  5-C , 14-H ) :   0.9468

FINAL SINGLE POINT ENERGY      -341.221720054571

DIPOLE MOMENT
-------------
                                X             Y             Z
Electronic contribution:      0.35777      -1.80998      -3.95759
Nuclear contribution   :     -0.92018       2.65726       4.89537
                        -----------------------------------------
Total Dipole Moment    :     -0.56241       0.84728       0.93779
                        -----------------------------------------
Magnitude (a.u.)       :      1.38334
Magnitude (Debye)      :      3.51618

                             ****ORCA TERMINATED NORMALLY****
TOTAL RUN TIME: 0 days 0 hours 0 minutes 6 seconds 902 msec
