                         Program Version 3.0.3 - RELEASE   -
|  1> ! RI PBE def2-SVP def2-SVP/J NBO PAL2
|  2> % maxcore 2000
|  3> % output
|  4>     # printlevel mini
|  5>     print[ P_Basis ] 0
|  6>     print[ P_SCFInfo ] 1
|  7>     print[ P_SCFIterInfo ] 1
|  8>     print[ P_OrbEn ] 0
|  9>     print[ P_Cartesian ] 0
| 10> end
| 11> *xyz 0 1
| 12>  N        2.6359800000    -0.9581930000     0.1179030000
| 13>  C        2.1460250000     0.1868580000     0.3692930000
| 14>  N        2.8262960000     1.1031970000     1.1064140000
| 15>  C        2.7501200000     2.5598820000     0.9871160000
| 16>  C        4.2433150000     2.5764060000     1.3361610000
| 17>  O        5.0417110000     3.4350600000     1.5256620000
| 18>  C        4.2691000000     1.0514390000     1.3394190000
| 19>  H        1.9776930000    -1.5241060000    -0.4067250000
| 20>  H        1.1554430000     0.5383870000     0.0573060000
| 21>  H        2.0964290000     3.0559550000     1.7103350000
| 22>  H        2.5387220000     2.9375060000    -0.0204430000
| 23>  H        4.5756710000     0.5767950000     2.2751330000
| 24>  H        4.8316050000     0.6044230000     0.5111170000
| 25> *
| 26>
| 27>                          ****END OF INPUT****
 Total Charge           Charge          ....    0
 Multiplicity           Mult            ....    1
 Number of Electrons    NEL             ....   52
 Basis Dimension        Dim             ....  128

MULLIKEN ATOMIC CHARGES
-----------------------
   0 N :   -0.170248
   1 C :    0.025679
   2 N :   -0.293760
   3 C :    0.154086
   4 C :   -0.091277
   5 O :   -0.104798
   6 C :    0.168420
   7 H :    0.096731
   8 H :   -0.007082
   9 H :    0.058417
  10 H :    0.046988
  11 H :    0.058638
  12 H :    0.058206
Sum of atomic charges:   -0.0000000

LOEWDIN ATOMIC CHARGES
----------------------
   0 N :   -0.170726
   1 C :    0.015969
   2 N :   -0.052970
   3 C :    0.011731
   4 C :    0.053559
   5 O :   -0.077455
   6 C :    0.019495
   7 H :    0.052463
   8 H :   -0.003981
   9 H :    0.036391
  10 H :    0.033480
  11 H :    0.040907
  12 H :    0.041136

  Mayer bond orders larger than 0.1
B(  0-N ,  1-C ) :   1.9049 B(  0-N ,  7-H ) :   0.9351 B(  1-C ,  2-N ) :   1.1455
B(  1-C ,  8-H ) :   0.9393 B(  2-N ,  3-C ) :   0.9839 B(  2-N ,  6-C ) :   0.9800
B(  3-C ,  4-C ) :   0.9353 B(  3-C ,  6-C ) :  -0.1052 B(  3-C ,  9-H ) :   0.9216
B(  3-C , 10-H ) :   0.9176 B(  4-C ,  5-O ) :   2.2563 B(  4-C ,  6-C ) :   0.9465
B(  6-C , 11-H ) :   0.9249 B(  6-C , 12-H ) :   0.9113

FINAL SINGLE POINT ENERGY      -340.060809663486

DIPOLE MOMENT
-------------
                                X             Y             Z
Electronic contribution:      2.21859       2.29763       1.23731
Nuclear contribution   :     -3.12223      -2.19981      -1.52576
                        -----------------------------------------
Total Dipole Moment    :     -0.90364       0.09781      -0.28846
                        -----------------------------------------
Magnitude (a.u.)       :      0.95359
Magnitude (Debye)      :      2.42383

                             ****ORCA TERMINATED NORMALLY****
TOTAL RUN TIME: 0 days 0 hours 0 minutes 6 seconds 728 msec
