                         Program Version 3.0.3 - RELEASE   -
|  1> ! RI PBE def2-SVP def2-SVP/J NBO PAL2
|  2> % maxcore 2000
|  3> % output
|  4>     # printlevel mini
|  5>     print[ P_Basis ] 0
|  6>     print[ P_SCFInfo ] 1
|  7>     print[ P_SCFIterInfo ] 1
|  8>     print[ P_OrbEn ] 0
|  9>     print[ P_Cartesian ] 0
| 10> end
| 11> *xyz 0 1
| 12>  N        2.4953220000     1.0113290000    -0.3521490000
| 13>  C        2.2969090000    -0.1489080000     0.1360450000
| 14>  N        2.8375810000    -0.5157590000     1.3214430000
| 15>  O        2.5768650000    -1.8061970000     1.7952230000
| 16>  C        3.2622310000    -1.9320110000     3.0547850000
| 17>  C        3.9293000000    -0.6079500000     3.2512510000
| 18>  C        3.6365370000     0.1594370000     2.2049290000
| 19>  H        2.0140600000     1.1018730000    -1.2392480000
| 20>  H        1.7045880000    -0.9569880000    -0.3002710000
| 21>  H        3.9666820000    -2.7717220000     2.9848600000
| 22>  H        2.5223000000    -2.1695980000     3.8308630000
| 23>  H        4.5376180000    -0.3401550000     4.0993370000
| 24>  H        3.9153090000     1.1724390000     1.9596320000
| 25> *
| 26>
| 27>                          ****END OF INPUT****
 Total Charge           Charge          ....    0
 Multiplicity           Mult            ....    1
 Number of Electrons    NEL             ....   52
 Basis Dimension        Dim             ....  128

MULLIKEN ATOMIC CHARGES
-----------------------
   0 N :   -0.188074
   1 C :    0.043946
   2 N :   -0.019726
   3 O :   -0.291238
   4 C :    0.263135
   5 C :   -0.202387
   6 C :    0.173599
   7 H :    0.098967
   8 H :    0.006067
   9 H :    0.035966
  10 H :    0.033116
  11 H :    0.019523
  12 H :    0.027105
Sum of atomic charges:   -0.0000000

LOEWDIN ATOMIC CHARGES
----------------------
   0 N :   -0.184487
   1 C :    0.008567
   2 N :    0.109503
   3 O :   -0.109187
   4 C :    0.083587
   5 C :   -0.105036
   6 C :    0.023014
   7 H :    0.053738
   8 H :    0.004879
   9 H :    0.019222
  10 H :    0.018809
  11 H :    0.033413
  12 H :    0.043978

  Mayer bond orders larger than 0.1
B(  0-N ,  1-C ) :   1.8563 B(  0-N ,  7-H ) :   0.9365 B(  1-C ,  2-N ) :   1.1276
B(  1-C ,  8-H ) :   0.9395 B(  2-N ,  3-O ) :   0.9225 B(  2-N ,  6-C ) :   1.0835
B(  3-O ,  4-C ) :   0.9450 B(  4-C ,  5-C ) :   1.0570 B(  4-C ,  9-H ) :   0.9333
B(  4-C , 10-H ) :   0.9329 B(  5-C ,  6-C ) :   1.6895 B(  5-C , 11-H ) :   0.9790
B(  6-C , 12-H ) :   0.9818

FINAL SINGLE POINT ENERGY      -340.009170158828

DIPOLE MOMENT
-------------
                                X             Y             Z
Electronic contribution:     -0.65956       0.05030      -1.16442
Nuclear contribution   :      0.72137      -0.49598       1.58301
                        -----------------------------------------
Total Dipole Moment    :      0.06181      -0.44569       0.41859
                        -----------------------------------------
Magnitude (a.u.)       :      0.61455
Magnitude (Debye)      :      1.56206

                             ****ORCA TERMINATED NORMALLY****
TOTAL RUN TIME: 0 days 0 hours 0 minutes 6 seconds 317 msec
