                         Program Version 3.0.3 - RELEASE   -
|  1> ! RI PBE def2-SVP def2-SVP/J NBO PAL2
|  2> % maxcore 2000
|  3> % output
|  4>     # printlevel mini
|  5>     print[ P_Basis ] 0
|  6>     print[ P_SCFInfo ] 1
|  7>     print[ P_SCFIterInfo ] 1
|  8>     print[ P_OrbEn ] 0
|  9>     print[ P_Cartesian ] 0
| 10> end
| 11> *xyz 0 1
| 12>  N        2.7605740000     0.8060000000     0.8064180000
| 13>  C        2.1673710000    -0.3172670000     0.2757820000
| 14>  N        0.9162920000    -0.4977200000     0.1044820000
| 15>  C        3.1240620000    -1.3464140000    -0.1898380000
| 16>  C        2.6821250000    -2.7904380000    -0.2484280000
| 17>  C        2.8491750000    -2.0448290000    -1.5052530000
| 18>  O        3.9217260000    -2.4104080000    -2.3080830000
| 19>  H        2.1711020000     1.4433010000     1.3151530000
| 20>  H        3.6970940000     0.7199050000     1.1619760000
| 21>  H        0.3676000000     0.2899510000     0.4418030000
| 22>  H        4.1735000000    -1.1776630000     0.0239070000
| 23>  H        1.6723660000    -2.9881760000     0.0870920000
| 24>  H        3.4342810000    -3.5342480000    -0.0177650000
| 25>  H        1.9452670000    -1.7217430000    -2.0152510000
| 26>  H        4.1648750000    -1.6538520000    -2.8486150000
| 27> *
| 28>
| 29>                          ****END OF INPUT****
 Total Charge           Charge          ....    0
 Multiplicity           Mult            ....    1
 Number of Electrons    NEL             ....   54
 Basis Dimension        Dim             ....  138

MULLIKEN ATOMIC CHARGES
-----------------------
   0 N :   -0.049993
   1 C :   -0.141635
   2 N :   -0.121499
   3 C :   -0.080435
   4 C :    0.040861
   5 C :    0.059253
   6 O :   -0.229532
   7 H :    0.099459
   8 H :    0.103874
   9 H :    0.068872
  10 H :   -0.017870
  11 H :    0.044394
  12 H :    0.035701
  13 H :    0.028969
  14 H :    0.159583
Sum of atomic charges:    0.0000000

LOEWDIN ATOMIC CHARGES
----------------------
   0 N :   -0.016852
   1 C :    0.006094
   2 N :   -0.192700
   3 C :   -0.078774
   4 C :   -0.025925
   5 C :    0.051394
   6 O :   -0.092285
   7 H :    0.063598
   8 H :    0.066948
   9 H :    0.036472
  10 H :    0.021963
  11 H :    0.035714
  12 H :    0.033188
  13 H :    0.015086
  14 H :    0.076078

  Mayer bond orders larger than 0.1
B(  0-N ,  1-C ) :   1.2159 B(  0-N ,  7-H ) :   0.9443 B(  0-N ,  8-H ) :   0.9350
B(  1-C ,  2-N ) :   1.9807 B(  1-C ,  3-C ) :   0.9878 B(  2-N ,  9-H ) :   0.9290
B(  3-C ,  4-C ) :   0.9827 B(  3-C ,  5-C ) :   0.8923 B(  3-C , 10-H ) :   0.9252
B(  4-C ,  5-C ) :   1.0219 B(  4-C , 11-H ) :   0.9229 B(  4-C , 12-H ) :   0.9317
B(  5-C ,  6-O ) :   1.1503 B(  5-C , 13-H ) :   0.9381 B(  6-O , 14-H ) :   0.9817

FINAL SINGLE POINT ENERGY      -341.265742486633

DIPOLE MOMENT
-------------
                                X             Y             Z
Electronic contribution:      0.30108       0.17045      -1.17547
Nuclear contribution   :      0.35577       0.97809       1.69878
                        -----------------------------------------
Total Dipole Moment    :      0.65685       1.14854       0.52331
                        -----------------------------------------
Magnitude (a.u.)       :      1.42283
Magnitude (Debye)      :      3.61655

                             ****ORCA TERMINATED NORMALLY****
TOTAL RUN TIME: 0 days 0 hours 0 minutes 7 seconds 219 msec
