                         Program Version 3.0.3 - RELEASE   -
|  1> ! RI PBE def2-SVP def2-SVP/J NBO PAL2
|  2> % maxcore 2000
|  3> % output
|  4>     # printlevel mini
|  5>     print[ P_Basis ] 0
|  6>     print[ P_SCFInfo ] 1
|  7>     print[ P_SCFIterInfo ] 1
|  8>     print[ P_OrbEn ] 0
|  9>     print[ P_Cartesian ] 0
| 10> end
| 11> *xyz 0 1
| 12>  N        1.8106210000    -0.4670420000     0.2143120000
| 13>  C        2.5315800000     0.6863390000     0.1097930000
| 14>  N        2.6932910000     1.6111690000     0.9692680000
| 15>  C        3.2970120000     0.8027460000    -1.1837710000
| 16>  C        4.6883040000     0.1512660000    -1.2241000000
| 17>  C        4.1375740000    -0.6134260000    -2.4276060000
| 18>  O        2.8198910000    -0.0723060000    -2.2228250000
| 19>  H        1.1315210000    -0.5439580000     0.9512740000
| 20>  H        1.6020270000    -0.9325700000    -0.6555870000
| 21>  H        2.1896930000     1.4207440000     1.8341570000
| 22>  H        3.2813540000     1.8500070000    -1.4955720000
| 23>  H        4.9040590000    -0.4667000000    -0.3538010000
| 24>  H        5.5208710000     0.8263770000    -1.4096290000
| 25>  H        4.1429660000    -1.7049680000    -2.3643320000
| 26>  H        4.5437360000    -0.3067890000    -3.3965710000
| 27> *
| 28>
| 29>                          ****END OF INPUT****
 Total Charge           Charge          ....    0
 Multiplicity           Mult            ....    1
 Number of Electrons    NEL             ....   54
 Basis Dimension        Dim             ....  138

MULLIKEN ATOMIC CHARGES
-----------------------
   0 N :   -0.048857
   1 C :   -0.177278
   2 N :   -0.118292
   3 C :    0.124506
   4 C :   -0.006112
   5 C :    0.192461
   6 O :   -0.369874
   7 H :    0.103467
   8 H :    0.110408
   9 H :    0.071113
  10 H :    0.021197
  11 H :    0.022619
  12 H :    0.036639
  13 H :    0.023563
  14 H :    0.014439
Sum of atomic charges:   -0.0000000

LOEWDIN ATOMIC CHARGES
----------------------
   0 N :   -0.008468
   1 C :   -0.020636
   2 N :   -0.181977
   3 C :    0.068804
   4 C :   -0.036281
   5 C :    0.086150
   6 O :   -0.182651
   7 H :    0.065023
   8 H :    0.063056
   9 H :    0.037395
  10 H :    0.024801
  11 H :    0.031800
  12 H :    0.030228
  13 H :    0.011425
  14 H :    0.011331

  Mayer bond orders larger than 0.1
B(  0-N ,  1-C ) :   1.2629 B(  0-N ,  2-N ) :   0.1167 B(  0-N ,  7-H ) :   0.9500
B(  0-N ,  8-H ) :   0.9038 B(  1-C ,  2-N ) :   1.9651 B(  1-C ,  3-C ) :   0.9301
B(  2-N ,  9-H ) :   0.9269 B(  3-C ,  4-C ) :   1.0996 B(  3-C ,  6-O ) :   1.0189
B(  3-C , 10-H ) :   0.9040 B(  4-C ,  5-C ) :   1.1106 B(  4-C , 11-H ) :   0.9196
B(  4-C , 12-H ) :   0.9420 B(  5-C ,  6-O ) :   1.0020 B(  5-C , 13-H ) :   0.9451
B(  5-C , 14-H ) :   0.9373

FINAL SINGLE POINT ENERGY      -341.262067463501

DIPOLE MOMENT
-------------
                                X             Y             Z
Electronic contribution:     -2.34558       0.98871       0.23978
Nuclear contribution   :      2.24366      -1.91846      -0.27042
                        -----------------------------------------
Total Dipole Moment    :     -0.10192      -0.92975      -0.03064
                        -----------------------------------------
Magnitude (a.u.)       :      0.93582
Magnitude (Debye)      :      2.37866

                             ****ORCA TERMINATED NORMALLY****
TOTAL RUN TIME: 0 days 0 hours 0 minutes 7 seconds 524 msec
