                         Program Version 3.0.3 - RELEASE   -
|  1> ! RI PBE def2-SVP def2-SVP/J NBO PAL2
|  2> % maxcore 2000
|  3> % output
|  4>     # printlevel mini
|  5>     print[ P_Basis ] 0
|  6>     print[ P_SCFInfo ] 1
|  7>     print[ P_SCFIterInfo ] 1
|  8>     print[ P_OrbEn ] 0
|  9>     print[ P_Cartesian ] 0
| 10> end
| 11> *xyz 0 1
| 12>  N        0.8734090000     1.9996630000     0.4819750000
| 13>  C        2.0954460000     1.7990210000     0.1994520000
| 14>  N        3.0152000000     1.4841660000     1.1485800000
| 15>  C        4.3931890000     1.2475100000     0.9031350000
| 16>  C        5.4575250000     1.9756280000     1.7407910000
| 17>  O        6.1710080000     0.7506730000     1.9439650000
| 18>  C        5.0649170000    -0.0190410000     1.4593080000
| 19>  H        0.3453440000     2.2215130000    -0.3541430000
| 20>  H        2.5285150000     1.8557330000    -0.8068190000
| 21>  H        2.6645680000     1.4199490000     2.0924280000
| 22>  H        4.5754750000     1.3625180000    -0.1663250000
| 23>  H        5.0591850000     2.3785500000     2.6813070000
| 24>  H        6.0663960000     2.7375830000     1.2473230000
| 25>  H        4.4965730000    -0.4800170000     2.2778900000
| 26>  H        5.3717690000    -0.7913480000     0.7492350000
| 27> *
| 28>
| 29>                          ****END OF INPUT****
 Total Charge           Charge          ....    0
 Multiplicity           Mult            ....    1
 Number of Electrons    NEL             ....   54
 Basis Dimension        Dim             ....  138

MULLIKEN ATOMIC CHARGES
-----------------------
   0 N :   -0.165261
   1 C :   -0.027949
   2 N :   -0.057481
   3 C :   -0.166536
   4 C :    0.262204
   5 O :   -0.359947
   6 C :    0.257837
   7 H :    0.094823
   8 H :   -0.010541
   9 H :    0.106665
  10 H :    0.029217
  11 H :   -0.004282
  12 H :    0.021552
  13 H :   -0.004420
  14 H :    0.024119
Sum of atomic charges:    0.0000000

LOEWDIN ATOMIC CHARGES
----------------------
   0 N :   -0.186210
   1 C :    0.018784
   2 N :    0.009977
   3 C :   -0.005728
   4 C :    0.077038
   5 O :   -0.180064
   6 C :    0.076075
   7 H :    0.050395
   8 H :   -0.006529
   9 H :    0.072356
  10 H :    0.031837
  11 H :    0.007053
  12 H :    0.013691
  13 H :    0.007162
  14 H :    0.014163

  Mayer bond orders larger than 0.1
B(  0-N ,  1-C ) :   1.9132 B(  0-N ,  7-H ) :   0.9361 B(  1-C ,  2-N ) :   1.1797
B(  1-C ,  8-H ) :   0.9319 B(  2-N ,  3-C ) :   1.0604 B(  2-N ,  9-H ) :   0.9141
B(  3-C ,  4-C ) :   1.0621 B(  3-C ,  6-C ) :   1.0639 B(  3-C , 10-H ) :   0.8977
B(  4-C ,  5-O ) :   1.0343 B(  4-C , 11-H ) :   0.9144 B(  4-C , 12-H ) :   0.9401
B(  5-O ,  6-C ) :   1.0337 B(  6-C , 13-H ) :   0.9136 B(  6-C , 14-H ) :   0.9386

FINAL SINGLE POINT ENERGY      -341.247046936171

DIPOLE MOMENT
-------------
                                X             Y             Z
Electronic contribution:      0.18928      -0.13064       0.67633
Nuclear contribution   :      0.04573       0.16706      -1.24900
                        -----------------------------------------
Total Dipole Moment    :      0.23501       0.03642      -0.57267
                        -----------------------------------------
Magnitude (a.u.)       :      0.62009
Magnitude (Debye)      :      1.57613

                             ****ORCA TERMINATED NORMALLY****
TOTAL RUN TIME: 0 days 0 hours 0 minutes 6 seconds 687 msec
