                         Program Version 3.0.3 - RELEASE   -
|  1> ! RI PBE def2-SVP def2-SVP/J NBO PAL2
|  2> % maxcore 2000
|  3> % output
|  4>     # printlevel mini
|  5>     print[ P_Basis ] 0
|  6>     print[ P_SCFInfo ] 1
|  7>     print[ P_SCFIterInfo ] 1
|  8>     print[ P_OrbEn ] 0
|  9>     print[ P_Cartesian ] 0
| 10> end
| 11> *xyz 0 1
| 12>  N        2.3970790000     1.4675990000    -0.1863250000
| 13>  C        2.1730870000     0.1176930000    -0.0567370000
| 14>  N        1.3237360000    -0.5729410000    -0.7046480000
| 15>  C        2.9932440000    -0.5176820000     1.0261810000
| 16>  C        2.5437520000    -0.2769260000     2.4808410000
| 17>  O        2.5043780000    -1.6792920000     2.7440290000
| 18>  C        2.7448630000    -1.9867900000     1.3583580000
| 19>  H        2.0095900000     1.9403610000    -0.9851280000
| 20>  H        3.2603930000     1.8472360000     0.1617490000
| 21>  H        0.8261950000    -0.0115940000    -1.3944950000
| 22>  H        4.0506580000    -0.2834100000     0.8756880000
| 23>  H        1.5547890000     0.1875460000     2.5668700000
| 24>  H        3.2503490000     0.2460350000     3.1326820000
| 25>  H        1.8607550000    -2.3932660000     0.8628880000
| 26>  H        3.5950420000    -2.6625870000     1.2351360000
| 27> *
| 28>
| 29>                          ****END OF INPUT****
 Total Charge           Charge          ....    0
 Multiplicity           Mult            ....    1
 Number of Electrons    NEL             ....   54
 Basis Dimension        Dim             ....  138

MULLIKEN ATOMIC CHARGES
-----------------------
   0 N :   -0.046032
   1 C :   -0.146055
   2 N :   -0.088969
   3 C :   -0.245711
   4 C :    0.266751
   5 O :   -0.369310
   6 C :    0.281448
   7 H :    0.103314
   8 H :    0.103202
   9 H :    0.070799
  10 H :    0.022618
  11 H :    0.007363
  12 H :    0.009361
  13 H :    0.022539
  14 H :    0.008681
Sum of atomic charges:    0.0000000

LOEWDIN ATOMIC CHARGES
----------------------
   0 N :   -0.014776
   1 C :   -0.000281
   2 N :   -0.165954
   3 C :   -0.070480
   4 C :    0.094372
   5 O :   -0.186924
   6 C :    0.098609
   7 H :    0.065254
   8 H :    0.068339
   9 H :    0.038778
  10 H :    0.029871
  11 H :    0.010221
  12 H :    0.007749
  13 H :    0.014976
  14 H :    0.010247

  Mayer bond orders larger than 0.1
B(  0-N ,  1-C ) :   1.2099 B(  0-N ,  7-H ) :   0.9461 B(  0-N ,  8-H ) :   0.9372
B(  1-C ,  2-N ) :   2.0618 B(  1-C ,  3-C ) :   0.9192 B(  2-N ,  9-H ) :   0.9266
B(  3-C ,  4-C ) :   1.0946 B(  3-C ,  6-C ) :   1.1166 B(  3-C , 10-H ) :   0.8951
B(  4-C ,  5-O ) :   1.0484 B(  4-C , 11-H ) :   0.9247 B(  4-C , 12-H ) :   0.9329
B(  5-O ,  6-C ) :   1.0202 B(  6-C , 13-H ) :   0.9155 B(  6-C , 14-H ) :   0.9313

FINAL SINGLE POINT ENERGY      -341.254544398738

DIPOLE MOMENT
-------------
                                X             Y             Z
Electronic contribution:     -0.59497      -0.98899       0.40491
Nuclear contribution   :      1.27614       2.49085      -1.10560
                        -----------------------------------------
Total Dipole Moment    :      0.68117       1.50186      -0.70069
                        -----------------------------------------
Magnitude (a.u.)       :      1.79179
Magnitude (Debye)      :      4.55438

                             ****ORCA TERMINATED NORMALLY****
TOTAL RUN TIME: 0 days 0 hours 0 minutes 7 seconds 43 msec
