                         Program Version 3.0.3 - RELEASE   -
|  1> ! RI PBE def2-SVP def2-SVP/J NBO PAL2
|  2> % maxcore 2000
|  3> % output
|  4>     # printlevel mini
|  5>     print[ P_Basis ] 0
|  6>     print[ P_SCFInfo ] 1
|  7>     print[ P_SCFIterInfo ] 1
|  8>     print[ P_OrbEn ] 0
|  9>     print[ P_Cartesian ] 0
| 10> end
| 11> *xyz 0 1
| 12>  N        2.7580560000     0.4761070000     0.9625160000
| 13>  C        2.1728170000     0.0041800000    -0.0648330000
| 14>  N        2.8233560000    -0.2419300000    -1.2291520000
| 15>  C        4.1877620000     0.1567120000    -1.4307920000
| 16>  C        4.8178770000    -0.6243480000    -2.5493660000
| 17>  C        4.4920310000    -2.0162330000    -2.8274390000
| 18>  O        3.9702020000    -0.9671930000    -3.6385440000
| 19>  H        2.1095860000     0.5436340000     1.7387310000
| 20>  H        1.1119800000    -0.2671070000    -0.1113350000
| 21>  H        2.2803380000    -0.4040590000    -2.0606540000
| 22>  H        4.7380640000    -0.0048600000    -0.5006410000
| 23>  H        4.2626480000     1.2304940000    -1.6530370000
| 24>  H        5.8001820000    -0.2634170000    -2.8497920000
| 25>  H        3.7609020000    -2.5238250000    -2.2044830000
| 26>  H        5.2262100000    -2.6516540000    -3.3153600000
| 27> *
| 28>
| 29>                          ****END OF INPUT****
 Total Charge           Charge          ....    0
 Multiplicity           Mult            ....    1
 Number of Electrons    NEL             ....   54
 Basis Dimension        Dim             ....  138

MULLIKEN ATOMIC CHARGES
-----------------------
   0 N :   -0.192532
   1 C :    0.003119
   2 N :   -0.175122
   3 C :    0.223600
   4 C :   -0.047767
   5 C :    0.142219
   6 O :   -0.304928
   7 H :    0.090025
   8 H :   -0.008829
   9 H :    0.119962
  10 H :    0.043169
  11 H :    0.022341
  12 H :    0.023287
  13 H :    0.025365
  14 H :    0.036091
Sum of atomic charges:   -0.0000000

LOEWDIN ATOMIC CHARGES
----------------------
   0 N :   -0.191861
   1 C :    0.017179
   2 N :   -0.003884
   3 C :    0.020509
   4 C :    0.034600
   5 C :    0.055665
   6 O :   -0.163154
   7 H :    0.048747
   8 H :   -0.005221
   9 H :    0.068096
  10 H :    0.042181
  11 H :    0.026112
  12 H :    0.020485
  13 H :    0.012376
  14 H :    0.018169

  Mayer bond orders larger than 0.1
B(  0-N ,  1-C ) :   1.8647 B(  0-N ,  7-H ) :   0.9360 B(  1-C ,  2-N ) :   1.2135
B(  1-C ,  8-H ) :   0.9408 B(  2-N ,  3-C ) :   0.9979 B(  2-N ,  9-H ) :   0.9196
B(  3-C ,  4-C ) :   1.0319 B(  3-C , 10-H ) :   0.9158 B(  3-C , 11-H ) :   0.9233
B(  4-C ,  5-C ) :   1.0864 B(  4-C ,  6-O ) :   0.9837 B(  4-C , 12-H ) :   0.9328
B(  5-C ,  6-O ) :   0.9763 B(  5-C , 13-H ) :   0.9299 B(  5-C , 14-H ) :   0.9384

FINAL SINGLE POINT ENERGY      -341.250265826002

DIPOLE MOMENT
-------------
                                X             Y             Z
Electronic contribution:     -0.69503       0.21558      -1.53618
Nuclear contribution   :      0.53103      -0.59872       1.36518
                        -----------------------------------------
Total Dipole Moment    :     -0.16399      -0.38313      -0.17100
                        -----------------------------------------
Magnitude (a.u.)       :      0.45047
Magnitude (Debye)      :      1.14501

                             ****ORCA TERMINATED NORMALLY****
TOTAL RUN TIME: 0 days 0 hours 0 minutes 6 seconds 948 msec
