                         Program Version 3.0.3 - RELEASE   -
|  1> ! RI PBE def2-SVP def2-SVP/J NBO PAL2
|  2> % maxcore 2000
|  3> % output
|  4>     # printlevel mini
|  5>     print[ P_Basis ] 0
|  6>     print[ P_SCFInfo ] 1
|  7>     print[ P_SCFIterInfo ] 1
|  8>     print[ P_OrbEn ] 0
|  9>     print[ P_Cartesian ] 0
| 10> end
| 11> *xyz 0 1
| 12>  N        2.3853820000    -0.3359250000     1.3626930000
| 13>  C        2.3981630000    -0.2659800000    -0.0064550000
| 14>  N        1.7533190000    -1.0013370000    -0.8224240000
| 15>  C        3.2522350000     0.8530790000    -0.5478520000
| 16>  C        4.7063000000     0.6783660000    -0.2146360000
| 17>  C        5.5588750000     1.8082150000     0.1360530000
| 18>  O        5.0822900000     0.9247690000     1.1406840000
| 19>  H        2.0129430000    -1.1674340000     1.7887830000
| 20>  H        3.1398170000     0.1130220000     1.8582460000
| 21>  H        1.2138220000    -1.7159910000    -0.3336520000
| 22>  H        2.9039730000     1.8061990000    -0.1367280000
| 23>  H        3.1189750000     0.8711640000    -1.6298080000
| 24>  H        5.1814710000    -0.2042430000    -0.6397960000
| 25>  H        5.1301370000     2.8072720000     0.1553910000
| 26>  H        6.6282980000     1.7582240000    -0.0496990000
| 27> *
| 28>
| 29>                          ****END OF INPUT****
 Total Charge           Charge          ....    0
 Multiplicity           Mult            ....    1
 Number of Electrons    NEL             ....   54
 Basis Dimension        Dim             ....  138

MULLIKEN ATOMIC CHARGES
-----------------------
   0 N :   -0.039507
   1 C :   -0.265158
   2 N :   -0.092964
   3 C :    0.198909
   4 C :   -0.042034
   5 C :    0.146964
   6 O :   -0.305875
   7 H :    0.101094
   8 H :    0.110039
   9 H :    0.065111
  10 H :    0.009055
  11 H :    0.020633
  12 H :    0.025930
  13 H :    0.030578
  14 H :    0.037225
Sum of atomic charges:   -0.0000000

LOEWDIN ATOMIC CHARGES
----------------------
   0 N :   -0.012363
   1 C :   -0.002960
   2 N :   -0.179574
   3 C :   -0.048994
   4 C :    0.045235
   5 C :    0.060358
   6 O :   -0.167163
   7 H :    0.064192
   8 H :    0.063041
   9 H :    0.035255
  10 H :    0.037745
  11 H :    0.047460
  12 H :    0.021712
  13 H :    0.016575
  14 H :    0.019480

  Mayer bond orders larger than 0.1
B(  0-N ,  1-C ) :   1.2379 B(  0-N ,  2-N ) :   0.1044 B(  0-N ,  7-H ) :   0.9486
B(  0-N ,  8-H ) :   0.9204 B(  1-C ,  2-N ) :   2.0363 B(  1-C ,  3-C ) :   0.9831
B(  2-N ,  9-H ) :   0.9310 B(  3-C ,  4-C ) :   1.0592 B(  3-C , 10-H ) :   0.9009
B(  3-C , 11-H ) :   0.8937 B(  4-C ,  5-C ) :   1.0721 B(  4-C ,  6-O ) :   0.9237
B(  4-C , 12-H ) :   0.9380 B(  5-C ,  6-O ) :   1.0004 B(  5-C , 13-H ) :   0.9324
B(  5-C , 14-H ) :   0.9375

FINAL SINGLE POINT ENERGY      -341.261010128042

DIPOLE MOMENT
-------------
                                X             Y             Z
Electronic contribution:     -0.05621      -0.98821       1.02261
Nuclear contribution   :      0.53391       1.20605      -0.47702
                        -----------------------------------------
Total Dipole Moment    :      0.47769       0.21784       0.54558
                        -----------------------------------------
Magnitude (a.u.)       :      0.75717
Magnitude (Debye)      :      1.92457

                             ****ORCA TERMINATED NORMALLY****
TOTAL RUN TIME: 0 days 0 hours 0 minutes 6 seconds 958 msec
