                         Program Version 3.0.3 - RELEASE   -
|  1> ! RI PBE def2-SVP def2-SVP/J NBO PAL2
|  2> % maxcore 2000
|  3> % output
|  4>     # printlevel mini
|  5>     print[ P_Basis ] 0
|  6>     print[ P_SCFInfo ] 1
|  7>     print[ P_SCFIterInfo ] 1
|  8>     print[ P_OrbEn ] 0
|  9>     print[ P_Cartesian ] 0
| 10> end
| 11> *xyz 0 1
| 12>  N        0.6913390000    -0.9941200000     0.1433820000
| 13>  C        1.9179420000    -0.6954470000     0.0903220000
| 14>  N        2.8789570000    -1.6233650000     0.4115710000
| 15>  C        4.2162600000    -1.3949290000     0.3842190000
| 16>  C        5.1811240000    -2.2795800000     0.6920570000
| 17>  C        6.5676830000    -1.8742230000     0.6110770000
| 18>  O        7.5167130000    -2.5793180000     0.8624000000
| 19>  H        0.1117220000    -0.2052040000    -0.1217710000
| 20>  H        2.3377320000     0.2735460000    -0.1982540000
| 21>  H        2.5323180000    -2.5327180000     0.6840270000
| 22>  H        4.4931610000    -0.3883120000     0.0791050000
| 23>  H        4.9618090000    -3.2960560000     1.0021350000
| 24>  H        6.7186410000    -0.8185620000     0.2865480000
| 25> *
| 26>
| 27>                          ****END OF INPUT****
 Total Charge           Charge          ....    0
 Multiplicity           Mult            ....    1
 Number of Electrons    NEL             ....   52
 Basis Dimension        Dim             ....  128

MULLIKEN ATOMIC CHARGES
-----------------------
   0 N :   -0.124878
   1 C :   -0.015597
   2 N :   -0.013631
   3 C :    0.056648
   4 C :   -0.039936
   5 C :    0.098617
   6 O :   -0.186093
   7 H :    0.110036
   8 H :    0.010529
   9 H :    0.128406
  10 H :    0.015248
  11 H :   -0.000900
  12 H :   -0.038447
Sum of atomic charges:   -0.0000000

LOEWDIN ATOMIC CHARGES
----------------------
   0 N :   -0.138338
   1 C :    0.034733
   2 N :    0.072337
   3 C :    0.041450
   4 C :   -0.124470
   5 C :    0.051262
   6 O :   -0.138412
   7 H :    0.061068
   8 H :    0.003806
   9 H :    0.093743
  10 H :    0.030079
  11 H :    0.032323
  12 H :   -0.019582

  Mayer bond orders larger than 0.1
B(  0-N ,  1-C ) :   1.9469 B(  0-N ,  7-H ) :   0.9335 B(  1-C ,  2-N ) :   1.1162
B(  1-C ,  8-H ) :   0.9368 B(  2-N ,  3-C ) :   1.2140 B(  2-N ,  9-H ) :   0.9161
B(  3-C ,  4-C ) :   1.5829 B(  3-C , 10-H ) :   0.9474 B(  4-C ,  5-C ) :   1.0865
B(  4-C , 11-H ) :   0.9649 B(  5-C ,  6-O ) :   2.0787 B(  5-C , 12-H ) :   0.9297

FINAL SINGLE POINT ENERGY      -340.084827785851

DIPOLE MOMENT
-------------
                                X             Y             Z
Electronic contribution:      2.11717      -1.65852       0.58512
Nuclear contribution   :     -3.44618       2.63063      -0.93417
                        -----------------------------------------
Total Dipole Moment    :     -1.32901       0.97211      -0.34905
                        -----------------------------------------
Magnitude (a.u.)       :      1.68318
Magnitude (Debye)      :      4.27830

                             ****ORCA TERMINATED NORMALLY****
TOTAL RUN TIME: 0 days 0 hours 0 minutes 6 seconds 253 msec
