                         Program Version 3.0.3 - RELEASE   -
|  1> ! RI PBE def2-SVP def2-SVP/J NBO PAL2
|  2> % maxcore 2000
|  3> % output
|  4>     # printlevel mini
|  5>     print[ P_Basis ] 0
|  6>     print[ P_SCFInfo ] 1
|  7>     print[ P_SCFIterInfo ] 1
|  8>     print[ P_OrbEn ] 0
|  9>     print[ P_Cartesian ] 0
| 10> end
| 11> *xyz 0 1
| 12>  N        0.7467620000    -0.6568990000     0.9574890000
| 13>  C        2.0093570000    -0.7689700000     0.8597010000
| 14>  N        2.8650050000     0.1381250000     1.3971560000
| 15>  C        4.2712220000    -0.1053530000     1.5716020000
| 16>  C        4.6242210000    -0.7194930000     2.9191170000
| 17>  C        6.0852800000    -0.9984050000     3.0972150000
| 18>  O        6.9232150000    -0.7901660000     2.2623720000
| 19>  H        0.2821880000    -1.4002050000     0.4483220000
| 20>  H        2.5298670000    -1.5727800000     0.3230520000
| 21>  H        2.4274030000     0.8626300000     1.9457570000
| 22>  H        4.8244040000     0.8274930000     1.4387280000
| 23>  H        4.6100150000    -0.7666340000     0.7708320000
| 24>  H        4.0839480000    -1.6624890000     3.0762830000
| 25>  H        4.3063880000    -0.0733700000     3.7482700000
| 26>  H        6.3661230000    -1.4293830000     4.0829260000
| 27> *
| 28>
| 29>                          ****END OF INPUT****
 Total Charge           Charge          ....    0
 Multiplicity           Mult            ....    1
 Number of Electrons    NEL             ....   54
 Basis Dimension        Dim             ....  138

MULLIKEN ATOMIC CHARGES
-----------------------
   0 N :   -0.163696
   1 C :   -0.034145
   2 N :   -0.119056
   3 C :    0.085522
   4 C :   -0.024313
   5 C :    0.083455
   6 O :   -0.161336
   7 H :    0.092056
   8 H :   -0.011484
   9 H :    0.106730
  10 H :    0.031831
  11 H :    0.032912
  12 H :    0.044971
  13 H :    0.040073
  14 H :   -0.003519
Sum of atomic charges:   -0.0000000

LOEWDIN ATOMIC CHARGES
----------------------
   0 N :   -0.188882
   1 C :    0.012780
   2 N :    0.000160
   3 C :    0.024411
   4 C :   -0.098638
   5 C :    0.093934
   6 O :   -0.107349
   7 H :    0.048984
   8 H :   -0.006932
   9 H :    0.070631
  10 H :    0.030339
  11 H :    0.033106
  12 H :    0.050143
  13 H :    0.046627
  14 H :   -0.009316

  Mayer bond orders larger than 0.1
B(  0-N ,  1-C ) :   1.9035 B(  0-N ,  7-H ) :   0.9344 B(  1-C ,  2-N ) :   1.1912
B(  1-C ,  8-H ) :   0.9292 B(  2-N ,  3-C ) :   1.0512 B(  2-N ,  9-H ) :   0.9259
B(  3-C ,  4-C ) :   1.0650 B(  3-C , 10-H ) :   0.9412 B(  3-C , 11-H ) :   0.9299
B(  4-C ,  5-C ) :   0.9687 B(  4-C , 12-H ) :   0.9019 B(  4-C , 13-H ) :   0.9060
B(  5-C ,  6-O ) :   2.1766 B(  5-C , 14-H ) :   0.9297

FINAL SINGLE POINT ENERGY      -341.279580899858

DIPOLE MOMENT
-------------
                                X             Y             Z
Electronic contribution:      2.15465       0.37711      -0.35408
Nuclear contribution   :     -1.98585      -0.67194       0.86521
                        -----------------------------------------
Total Dipole Moment    :      0.16880      -0.29483       0.51113
                        -----------------------------------------
Magnitude (a.u.)       :      0.61374
Magnitude (Debye)      :      1.56000

                             ****ORCA TERMINATED NORMALLY****
TOTAL RUN TIME: 0 days 0 hours 0 minutes 6 seconds 775 msec
