                         Program Version 3.0.3 - RELEASE   -
|  1> ! RI PBE def2-SVP def2-SVP/J NBO PAL2
|  2> % maxcore 2000
|  3> % output
|  4>     # printlevel mini
|  5>     print[ P_Basis ] 0
|  6>     print[ P_SCFInfo ] 1
|  7>     print[ P_SCFIterInfo ] 1
|  8>     print[ P_OrbEn ] 0
|  9>     print[ P_Cartesian ] 0
| 10> end
| 11> *xyz 0 1
| 12>  N        1.1441960000    -0.7889470000    -0.7481510000
| 13>  C        2.2917950000    -0.5953080000    -0.0315700000
| 14>  N        2.5183240000    -1.0691370000     1.1308510000
| 15>  C        3.3239760000     0.2356470000    -0.7492410000
| 16>  C        4.7653620000     0.1490780000    -0.2579560000
| 17>  C        5.0792760000     0.8322260000     1.0705150000
| 18>  O        4.7785590000     0.0708420000     2.2029440000
| 19>  H        0.3274610000    -1.1381650000    -0.2776240000
| 20>  H        0.9793520000    -0.2348760000    -1.5693270000
| 21>  H        1.7345090000    -1.6000440000     1.5023830000
| 22>  H        2.9849630000     1.2792230000    -0.7038510000
| 23>  H        3.2885970000    -0.0427500000    -1.8085660000
| 24>  H        5.3850620000     0.6200380000    -1.0288210000
| 25>  H        5.0787120000    -0.8975460000    -0.1973210000
| 26>  H        4.5675480000     1.8114260000     1.0935820000
| 27>  H        6.1534510000     1.0430430000     1.1045810000
| 28>  H        3.9433470000    -0.4057610000     2.0082730000
| 29> *
| 30>
| 31>                          ****END OF INPUT****
 Total Charge           Charge          ....    0
 Multiplicity           Mult            ....    1
 Number of Electrons    NEL             ....   56
 Basis Dimension        Dim             ....  148

MULLIKEN ATOMIC CHARGES
-----------------------
   0 N :   -0.039217
   1 C :   -0.163002
   2 N :   -0.119078
   3 C :    0.012942
   4 C :   -0.043177
   5 C :    0.197347
   6 O :   -0.303656
   7 H :    0.106882
   8 H :    0.107353
   9 H :    0.079382
  10 H :    0.036651
  11 H :    0.017393
  12 H :   -0.000937
  13 H :    0.019949
  14 H :   -0.036742
  15 H :   -0.005825
  16 H :    0.133734
Sum of atomic charges:   -0.0000000

LOEWDIN ATOMIC CHARGES
----------------------
   0 N :   -0.000759
   1 C :    0.022684
   2 N :   -0.143203
   3 C :   -0.055624
   4 C :   -0.059052
   5 C :    0.050114
   6 O :   -0.148536
   7 H :    0.068115
   8 H :    0.072619
   9 H :    0.044789
  10 H :    0.039652
  11 H :    0.032232
  12 H :    0.030769
  13 H :    0.029592
  14 H :   -0.009256
  15 H :    0.012409
  16 H :    0.013455

  Mayer bond orders larger than 0.1
B(  0-N ,  1-C ) :   1.2705 B(  0-N ,  7-H ) :   0.9460 B(  0-N ,  8-H ) :   0.9376
B(  1-C ,  2-N ) :   1.9012 B(  1-C ,  3-C ) :   0.9776 B(  2-N ,  9-H ) :   0.9193
B(  2-N , 16-H ) :   0.1692 B(  3-C ,  4-C ) :   1.1035 B(  3-C , 10-H ) :   0.9102
B(  3-C , 11-H ) :   0.9219 B(  4-C ,  5-C ) :   1.0778 B(  4-C , 12-H ) :   0.9057
B(  4-C , 13-H ) :   0.9315 B(  5-C ,  6-O ) :   1.1316 B(  5-C , 14-H ) :   0.9173
B(  5-C , 15-H ) :   0.9365 B(  6-O , 16-H ) :   0.9203

FINAL SINGLE POINT ENERGY      -342.495528614251

DIPOLE MOMENT
-------------
                                X             Y             Z
Electronic contribution:     -2.05538      -1.95746       2.10206
Nuclear contribution   :      0.33575       1.96327      -3.63625
                        -----------------------------------------
Total Dipole Moment    :     -1.71962       0.00582      -1.53419
                        -----------------------------------------
Magnitude (a.u.)       :      2.30454
Magnitude (Debye)      :      5.85767

                             ****ORCA TERMINATED NORMALLY****
TOTAL RUN TIME: 0 days 0 hours 0 minutes 7 seconds 523 msec
