                         Program Version 3.0.3 - RELEASE   -
|  1> ! RI PBE def2-SVP def2-SVP/J NBO PAL2
|  2> % maxcore 2000
|  3> % output
|  4>     # printlevel mini
|  5>     print[ P_Basis ] 0
|  6>     print[ P_SCFInfo ] 1
|  7>     print[ P_SCFIterInfo ] 1
|  8>     print[ P_OrbEn ] 0
|  9>     print[ P_Cartesian ] 0
| 10> end
| 11> *xyz 0 1
| 12>  N        4.0278040000     0.0909400000     1.3884650000
| 13>  C        2.9661990000    -0.0412640000     0.5221690000
| 14>  N        1.7283640000    -0.0277720000     0.8398340000
| 15>  C        3.2866480000    -0.2754220000    -0.8954050000
| 16>  C        4.4913680000    -0.5060020000    -1.4110620000
| 17>  C        4.7401200000    -0.7382420000    -2.8636620000
| 18>  O        5.6731690000     0.1839550000    -3.3953740000
| 19>  H        3.8143910000     0.4409140000     2.3074040000
| 20>  H        4.8946760000     0.4328160000     1.0096380000
| 21>  H        1.5986960000     0.1355580000     1.8379830000
| 22>  H        2.4077820000    -0.2721880000    -1.5325600000
| 23>  H        5.3785190000    -0.5385470000    -0.7817490000
| 24>  H        3.7917480000    -0.7175490000    -3.4156950000
| 25>  H        5.1891480000    -1.7239880000    -3.0165510000
| 26>  H        5.3127880000     1.0670900000    -3.2764260000
| 27> *
| 28>
| 29>                          ****END OF INPUT****
 Total Charge           Charge          ....    0
 Multiplicity           Mult            ....    1
 Number of Electrons    NEL             ....   54
 Basis Dimension        Dim             ....  138

MULLIKEN ATOMIC CHARGES
-----------------------
   0 N :   -0.050160
   1 C :   -0.196291
   2 N :   -0.092011
   3 C :    0.086658
   4 C :   -0.155852
   5 C :    0.259740
   6 O :   -0.294222
   7 H :    0.100903
   8 H :    0.107313
   9 H :    0.070085
  10 H :   -0.007149
  11 H :   -0.000018
  12 H :    0.000481
  13 H :    0.019058
  14 H :    0.151465
Sum of atomic charges:   -0.0000000

LOEWDIN ATOMIC CHARGES
----------------------
   0 N :   -0.018467
   1 C :   -0.006481
   2 N :   -0.157304
   3 C :   -0.034854
   4 C :   -0.057543
   5 C :    0.059392
   6 O :   -0.120362
   7 H :    0.065294
   8 H :    0.066204
   9 H :    0.037282
  10 H :    0.036790
  11 H :    0.020595
  12 H :    0.010837
  13 H :    0.030811
  14 H :    0.067807

  Mayer bond orders larger than 0.1
B(  0-N ,  1-C ) :   1.2329 B(  0-N ,  7-H ) :   0.9464 B(  0-N ,  8-H ) :   0.9269
B(  1-C ,  2-N ) :   1.9625 B(  1-C ,  3-C ) :   1.0151 B(  2-N ,  9-H ) :   0.9303
B(  3-C ,  4-C ) :   1.7499 B(  3-C , 10-H ) :   0.9572 B(  4-C ,  5-C ) :   1.0683
B(  4-C , 11-H ) :   0.9499 B(  5-C ,  6-O ) :   1.0284 B(  5-C , 12-H ) :   0.9371
B(  5-C , 13-H ) :   0.9138 B(  6-O , 14-H ) :   0.9854

FINAL SINGLE POINT ENERGY      -341.266661865036

DIPOLE MOMENT
-------------
                                X             Y             Z
Electronic contribution:     -0.56682       0.48578       0.68475
Nuclear contribution   :      1.16321       0.11136      -0.02279
                        -----------------------------------------
Total Dipole Moment    :      0.59640       0.59715       0.66196
                        -----------------------------------------
Magnitude (a.u.)       :      1.07260
Magnitude (Debye)      :      2.72633

                             ****ORCA TERMINATED NORMALLY****
TOTAL RUN TIME: 0 days 0 hours 0 minutes 7 seconds 218 msec
