                         Program Version 3.0.3 - RELEASE   -
|  1> ! RI PBE def2-SVP def2-SVP/J NBO PAL2
|  2> % maxcore 2000
|  3> % output
|  4>     # printlevel mini
|  5>     print[ P_Basis ] 0
|  6>     print[ P_SCFInfo ] 1
|  7>     print[ P_SCFIterInfo ] 1
|  8>     print[ P_OrbEn ] 0
|  9>     print[ P_Cartesian ] 0
| 10> end
| 11> *xyz 0 1
| 12>  N        4.6450140000     0.5824420000    -1.0802550000
| 13>  C        3.4727710000     0.3370680000    -0.4323050000
| 14>  N        2.2934510000     0.6099860000    -0.8488410000
| 15>  C        3.5503520000    -0.3098740000     0.8870970000
| 16>  C        4.6464000000    -0.6960830000     1.5436420000
| 17>  C        4.5390100000    -1.3301420000     2.8596020000
| 18>  O        5.4838170000    -1.7030270000     3.5077630000
| 19>  H        4.6422340000     1.0221740000    -1.9813310000
| 20>  H        5.5304110000     0.3375610000    -0.6812860000
| 21>  H        2.3085650000     1.0553930000    -1.7658670000
| 22>  H        2.5722220000    -0.4669170000     1.3315610000
| 23>  H        5.6570850000    -0.5734600000     1.1652720000
| 24>  H        3.5003580000    -1.4496210000     3.2346490000
| 25> *
| 26>
| 27>                          ****END OF INPUT****
 Total Charge           Charge          ....    0
 Multiplicity           Mult            ....    1
 Number of Electrons    NEL             ....   52
 Basis Dimension        Dim             ....  128

MULLIKEN ATOMIC CHARGES
-----------------------
   0 N :   -0.031225
   1 C :   -0.184074
   2 N :   -0.079020
   3 C :    0.099691
   4 C :   -0.039881
   5 C :    0.123565
   6 O :   -0.165462
   7 H :    0.109822
   8 H :    0.103722
   9 H :    0.076214
  10 H :    0.009234
  11 H :   -0.002105
  12 H :   -0.020481
Sum of atomic charges:   -0.0000000

LOEWDIN ATOMIC CHARGES
----------------------
   0 N :   -0.000030
   1 C :   -0.005171
   2 N :   -0.145945
   3 C :    0.019633
   4 C :   -0.071242
   5 C :    0.073077
   6 O :   -0.112226
   7 H :    0.070787
   8 H :    0.069268
   9 H :    0.040950
  10 H :    0.043620
  11 H :    0.026337
  12 H :   -0.009057

  Mayer bond orders larger than 0.1
B(  0-N ,  1-C ) :   1.2688 B(  0-N ,  2-N ) :   0.1131 B(  0-N ,  7-H ) :   0.9447
B(  0-N ,  8-H ) :   0.9283 B(  1-C ,  2-N ) :   1.9440 B(  1-C ,  3-C ) :   1.0114
B(  2-N ,  9-H ) :   0.9295 B(  3-C ,  4-C ) :   1.6231 B(  3-C , 10-H ) :   0.9565
B(  4-C ,  5-C ) :   1.0433 B(  4-C , 11-H ) :   0.9555 B(  5-C ,  6-O ) :   2.1126
B(  5-C , 12-H ) :   0.9374

FINAL SINGLE POINT ENERGY      -340.076895674613

DIPOLE MOMENT
-------------
                                X             Y             Z
Electronic contribution:      0.91745      -1.28125       2.50523
Nuclear contribution   :     -0.45400       1.90726      -3.85269
                        -----------------------------------------
Total Dipole Moment    :      0.46345       0.62601      -1.34746
                        -----------------------------------------
Magnitude (a.u.)       :      1.55638
Magnitude (Debye)      :      3.95600

                             ****ORCA TERMINATED NORMALLY****
TOTAL RUN TIME: 0 days 0 hours 0 minutes 6 seconds 304 msec
