                         Program Version 3.0.3 - RELEASE   -
|  1> ! RI PBE def2-SVP def2-SVP/J NBO PAL2
|  2> % maxcore 2000
|  3> % output
|  4>     # printlevel mini
|  5>     print[ P_Basis ] 0
|  6>     print[ P_SCFInfo ] 1
|  7>     print[ P_SCFIterInfo ] 1
|  8>     print[ P_OrbEn ] 0
|  9>     print[ P_Cartesian ] 0
| 10> end
| 11> *xyz 0 1
| 12>  N        0.7232500000    -0.1942340000    -0.2561620000
| 13>  C        2.0754100000    -0.2444750000    -0.0409180000
| 14>  N        2.6812060000     0.2201720000     0.9878110000
| 15>  C        2.8969030000    -0.9328500000    -1.0693930000
| 16>  C        2.3636350000    -1.6900340000    -2.0248250000
| 17>  C        4.3909920000    -0.7876050000    -0.9198840000
| 18>  O        4.8197480000     0.5379210000    -0.7595760000
| 19>  H        0.1922810000     0.4264430000     0.3311390000
| 20>  H        0.4020930000    -0.2478540000    -1.2072360000
| 21>  H        2.0441720000     0.6726380000     1.6398680000
| 22>  H        1.3010900000    -1.8928100000    -2.0972490000
| 23>  H        2.9955870000    -2.1772290000    -2.7588690000
| 24>  H        4.8747250000    -1.1824000000    -1.8158500000
| 25>  H        4.7080230000    -1.4082480000    -0.0689810000
| 26>  H        4.3891860000     0.8309760000     0.0586260000
| 27> *
| 28>
| 29>                          ****END OF INPUT****
 Total Charge           Charge          ....    0
 Multiplicity           Mult            ....    1
 Number of Electrons    NEL             ....   54
 Basis Dimension        Dim             ....  138

MULLIKEN ATOMIC CHARGES
-----------------------
   0 N :   -0.039186
   1 C :   -0.127763
   2 N :   -0.128369
   3 C :   -0.099819
   4 C :   -0.066956
   5 C :    0.286595
   6 O :   -0.298260
   7 H :    0.103933
   8 H :    0.112731
   9 H :    0.078340
  10 H :    0.007613
  11 H :    0.025409
  12 H :   -0.010736
  13 H :    0.011537
  14 H :    0.144932
Sum of atomic charges:   -0.0000000

LOEWDIN ATOMIC CHARGES
----------------------
   0 N :   -0.002168
   1 C :    0.017558
   2 N :   -0.160241
   3 C :   -0.051369
   4 C :   -0.046289
   5 C :    0.064892
   6 O :   -0.129399
   7 H :    0.068124
   8 H :    0.071068
   9 H :    0.041804
  10 H :    0.016495
  11 H :    0.028660
  12 H :    0.021360
  13 H :    0.018238
  14 H :    0.041267

  Mayer bond orders larger than 0.1
B(  0-N ,  1-C ) :   1.2781 B(  0-N ,  7-H ) :   0.9441 B(  0-N ,  8-H ) :   0.9270
B(  1-C ,  2-N ) :   1.8888 B(  1-C ,  3-C ) :   0.9617 B(  2-N ,  9-H ) :   0.9252
B(  2-N , 14-H ) :   0.1017 B(  3-C ,  4-C ) :   1.9524 B(  3-C ,  5-C ) :   1.0172
B(  4-C , 10-H ) :   0.9336 B(  4-C , 11-H ) :   0.9248 B(  5-C ,  6-O ) :   1.0896
B(  5-C , 12-H ) :   0.9204 B(  5-C , 13-H ) :   0.9085 B(  6-O , 14-H ) :   0.9498

FINAL SINGLE POINT ENERGY      -341.272576618626

DIPOLE MOMENT
-------------
                                X             Y             Z
Electronic contribution:      0.24294       1.58221       1.22558
Nuclear contribution   :     -1.86308      -1.65762      -1.30422
                        -----------------------------------------
Total Dipole Moment    :     -1.62013      -0.07542      -0.07863
                        -----------------------------------------
Magnitude (a.u.)       :      1.62379
Magnitude (Debye)      :      4.12735

                             ****ORCA TERMINATED NORMALLY****
TOTAL RUN TIME: 0 days 0 hours 0 minutes 7 seconds 450 msec
