                         Program Version 3.0.3 - RELEASE   -
|  1> ! RI PBE def2-SVP def2-SVP/J NBO PAL2
|  2> % maxcore 2000
|  3> % output
|  4>     # printlevel mini
|  5>     print[ P_Basis ] 0
|  6>     print[ P_SCFInfo ] 1
|  7>     print[ P_SCFIterInfo ] 1
|  8>     print[ P_OrbEn ] 0
|  9>     print[ P_Cartesian ] 0
| 10> end
| 11> *xyz 0 1
| 12>  N        2.8641760000    -0.1219750000     1.1728920000
| 13>  C        2.2299850000     0.1696740000     0.0108380000
| 14>  N        0.9724050000     0.2765970000    -0.1850000000
| 15>  C        3.1358160000     0.3863140000    -1.1639990000
| 16>  C        2.6232790000     0.6820830000    -2.3610050000
| 17>  C        4.6038030000     0.2935630000    -1.0929220000
| 18>  O        5.2720540000     0.0396660000    -0.1174270000
| 19>  H        2.3303620000    -0.2831700000     2.0067530000
| 20>  H        3.8719970000    -0.1793790000     1.1912900000
| 21>  H        0.4450180000     0.1120840000     0.6695060000
| 22>  H        1.5508630000     0.7665720000    -2.4872460000
| 23>  H        3.2720850000     0.8402010000    -3.2160980000
| 24>  H        5.0985490000     0.4858700000    -2.0664820000
| 25> *
| 26>
| 27>                          ****END OF INPUT****
 Total Charge           Charge          ....    0
 Multiplicity           Mult            ....    1
 Number of Electrons    NEL             ....   52
 Basis Dimension        Dim             ....  128

MULLIKEN ATOMIC CHARGES
-----------------------
   0 N :   -0.017439
   1 C :   -0.175551
   2 N :   -0.097907
   3 C :   -0.048350
   4 C :    0.017453
   5 C :    0.144947
   6 O :   -0.181180
   7 H :    0.100395
   8 H :    0.104767
   9 H :    0.071982
  10 H :    0.059766
  11 H :    0.032574
  12 H :   -0.011459
Sum of atomic charges:   -0.0000000

LOEWDIN ATOMIC CHARGES
----------------------
   0 N :    0.008156
   1 C :    0.000049
   2 N :   -0.182263
   3 C :   -0.086800
   4 C :    0.059706
   5 C :    0.088922
   6 O :   -0.113704
   7 H :    0.066179
   8 H :    0.053305
   9 H :    0.038611
  10 H :    0.039879
  11 H :    0.028384
  12 H :   -0.000423

  Mayer bond orders larger than 0.1
B(  0-N ,  1-C ) :   1.3142 B(  0-N ,  2-N ) :   0.1283 B(  0-N ,  7-H ) :   0.9404
B(  0-N ,  8-H ) :   0.8771 B(  1-C ,  2-N ) :   2.0059 B(  1-C ,  3-C ) :   0.9087
B(  2-N ,  9-H ) :   0.9242 B(  3-C ,  4-C ) :   1.8736 B(  3-C ,  5-C ) :   1.0105
B(  4-C ,  6-O ) :   0.1019 B(  4-C , 10-H ) :   0.9159 B(  4-C , 11-H ) :   0.9281
B(  5-C ,  6-O ) :   2.0446 B(  5-C , 12-H ) :   0.9355 B(  6-O ,  8-H ) :   0.1121

FINAL SINGLE POINT ENERGY      -340.080726891214

DIPOLE MOMENT
-------------
                                X             Y             Z
Electronic contribution:      2.05694      -0.34031       1.04219
Nuclear contribution   :     -1.99686       0.31288      -0.93030
                        -----------------------------------------
Total Dipole Moment    :      0.06007      -0.02743       0.11189
                        -----------------------------------------
Magnitude (a.u.)       :      0.12993
Magnitude (Debye)      :      0.33025

                             ****ORCA TERMINATED NORMALLY****
TOTAL RUN TIME: 0 days 0 hours 0 minutes 6 seconds 317 msec
