                         Program Version 3.0.3 - RELEASE   -
|  1> ! RI PBE def2-SVP def2-SVP/J NBO PAL2
|  2> % maxcore 2000
|  3> % output
|  4>     # printlevel mini
|  5>     print[ P_Basis ] 0
|  6>     print[ P_SCFInfo ] 1
|  7>     print[ P_SCFIterInfo ] 1
|  8>     print[ P_OrbEn ] 0
|  9>     print[ P_Cartesian ] 0
| 10> end
| 11> *xyz 0 1
| 12>  N        0.9994890000    -0.0928380000     0.1267930000
| 13>  C        2.3704530000    -0.0553050000     0.0094800000
| 14>  N        3.0558830000     0.0506360000    -1.0598220000
| 15>  C        3.0603240000    -0.2032220000     1.2661220000
| 16>  C        3.6208090000    -0.3092190000     2.3255190000
| 17>  C        4.3822000000    -0.4591060000     3.5588580000
| 18>  O        5.6019020000     0.2464570000     3.5511850000
| 19>  H        0.4602580000     0.2268510000    -0.6602030000
| 20>  H        0.6040830000     0.0972490000     1.0314930000
| 21>  H        2.4518320000     0.1568900000    -1.8742930000
| 22>  H        4.5385820000    -1.5317340000     3.7434400000
| 23>  H        3.8065360000    -0.0699770000     4.4027050000
| 24>  H        6.0556290000     0.0512060000     2.7262230000
| 25> *
| 26>
| 27>                          ****END OF INPUT****
 Total Charge           Charge          ....    0
 Multiplicity           Mult            ....    1
 Number of Electrons    NEL             ....   52
 Basis Dimension        Dim             ....  128

MULLIKEN ATOMIC CHARGES
-----------------------
   0 N :   -0.047134
   1 C :   -0.193258
   2 N :   -0.089622
   3 C :   -0.001035
   4 C :   -0.184953
   5 C :    0.274007
   6 O :   -0.278630
   7 H :    0.108072
   8 H :    0.111048
   9 H :    0.076334
  10 H :    0.031449
  11 H :    0.029408
  12 H :    0.164315
Sum of atomic charges:   -0.0000000

LOEWDIN ATOMIC CHARGES
----------------------
   0 N :   -0.007563
   1 C :   -0.016777
   2 N :   -0.147978
   3 C :   -0.044942
   4 C :   -0.055822
   5 C :    0.051701
   6 O :   -0.110282
   7 H :    0.067573
   8 H :    0.074902
   9 H :    0.040174
  10 H :    0.030405
  11 H :    0.042912
  12 H :    0.075696

  Mayer bond orders larger than 0.1
B(  0-N ,  1-C ) :   1.2380 B(  0-N ,  2-N ) :   0.1138 B(  0-N ,  7-H ) :   0.9455
B(  0-N ,  8-H ) :   0.9329 B(  1-C ,  2-N ) :   1.9877 B(  1-C ,  3-C ) :   0.9063
B(  2-N ,  9-H ) :   0.9227 B(  3-C ,  4-C ) :   2.6658 B(  4-C ,  5-C ) :   1.0262
B(  5-C ,  6-O ) :   1.0691 B(  5-C , 10-H ) :   0.9143 B(  5-C , 11-H ) :   0.8978
B(  6-O , 12-H ) :   0.9813

FINAL SINGLE POINT ENERGY      -340.019967818390

DIPOLE MOMENT
-------------
                                X             Y             Z
Electronic contribution:      0.62464       0.33118      -0.73903
Nuclear contribution   :     -1.86741      -0.42013       0.81450
                        -----------------------------------------
Total Dipole Moment    :     -1.24277      -0.08895       0.07547
                        -----------------------------------------
Magnitude (a.u.)       :      1.24823
Magnitude (Debye)      :      3.17276

                             ****ORCA TERMINATED NORMALLY****
TOTAL RUN TIME: 0 days 0 hours 0 minutes 5 seconds 749 msec
