                         Program Version 3.0.3 - RELEASE   -
|  1> ! RI PBE def2-SVP def2-SVP/J NBO PAL2
|  2> % maxcore 2000
|  3> % output
|  4>     # printlevel mini
|  5>     print[ P_Basis ] 0
|  6>     print[ P_SCFInfo ] 1
|  7>     print[ P_SCFIterInfo ] 1
|  8>     print[ P_OrbEn ] 0
|  9>     print[ P_Cartesian ] 0
| 10> end
| 11> *xyz 0 1
| 12>  N        1.1175350000     0.1753100000     0.0317950000
| 13>  C        2.4331580000    -0.1468460000    -0.1786650000
| 14>  N        3.0552260000    -0.2525570000    -1.2859910000
| 15>  C        3.1567090000    -0.4326590000     1.0366620000
| 16>  C        3.7281320000    -0.6472680000     2.0755400000
| 17>  C        4.4729290000    -0.9314010000     3.2761530000
| 18>  O        4.0671060000    -0.7035290000     4.3863730000
| 19>  H        0.5953790000     0.5709900000    -0.7309260000
| 20>  H        0.8290720000     0.4361930000     0.9584900000
| 21>  H        2.4516580000    -0.0206090000    -2.0745750000
| 22>  H        5.4666960000    -1.3837240000     3.1015550000
| 23> *
| 24>
| 25>                          ****END OF INPUT****
 Total Charge           Charge          ....    0
 Multiplicity           Mult            ....    1
 Number of Electrons    NEL             ....   50
 Basis Dimension        Dim             ....  118

MULLIKEN ATOMIC CHARGES
-----------------------
   0 N :   -0.038375
   1 C :   -0.188412
   2 N :   -0.069793
   3 C :    0.071933
   4 C :   -0.055040
   5 C :    0.088283
   6 O :   -0.149951
   7 H :    0.114710
   8 H :    0.119877
   9 H :    0.084181
  10 H :    0.022587
Sum of atomic charges:   -0.0000000

LOEWDIN ATOMIC CHARGES
----------------------
   0 N :    0.003177
   1 C :   -0.018076
   2 N :   -0.126995
   3 C :    0.014512
   4 C :   -0.061673
   5 C :    0.071568
   6 O :   -0.088956
   7 H :    0.072021
   8 H :    0.080864
   9 H :    0.045219
  10 H :    0.008339

  Mayer bond orders larger than 0.1
B(  0-N ,  1-C ) :   1.2577 B(  0-N ,  2-N ) :   0.1288 B(  0-N ,  7-H ) :   0.9449
B(  0-N ,  8-H ) :   0.9290 B(  1-C ,  2-N ) :   1.9805 B(  1-C ,  3-C ) :   0.9080
B(  2-N ,  9-H ) :   0.9235 B(  3-C ,  4-C ) :   2.5999 B(  3-C ,  6-O ) :   0.1147
B(  4-C ,  5-C ) :   0.9077 B(  5-C ,  6-O ) :   2.1332 B(  5-C , 10-H ) :   0.9396

FINAL SINGLE POINT ENERGY      -338.822666964599

DIPOLE MOMENT
-------------
                                X             Y             Z
Electronic contribution:      1.75516      -0.63576       3.06130
Nuclear contribution   :     -2.89265       1.13680      -3.81645
                        -----------------------------------------
Total Dipole Moment    :     -1.13749       0.50103      -0.75515
                        -----------------------------------------
Magnitude (a.u.)       :      1.45437
Magnitude (Debye)      :      3.69671

                             ****ORCA TERMINATED NORMALLY****
TOTAL RUN TIME: 0 days 0 hours 0 minutes 5 seconds 211 msec
