                         Program Version 3.0.3 - RELEASE   -
|  1> ! RI PBE def2-SVP def2-SVP/J NBO PAL2
|  2> % maxcore 2000
|  3> % output
|  4>     # printlevel mini
|  5>     print[ P_Basis ] 0
|  6>     print[ P_SCFInfo ] 1
|  7>     print[ P_SCFIterInfo ] 1
|  8>     print[ P_OrbEn ] 0
|  9>     print[ P_Cartesian ] 0
| 10> end
| 11> *xyz 0 1
| 12>  N        1.3645040000     1.3528590000    -0.4395070000
| 13>  C        1.9826830000     0.1345800000    -0.5117550000
| 14>  N        1.6998930000    -0.8284000000    -1.2986420000
| 15>  C        3.0967340000    -0.0677760000     0.4872350000
| 16>  C        4.4480800000     0.4351860000    -0.0044360000
| 17>  C        4.6658200000     1.9134960000     0.0504110000
| 18>  O        3.8613670000     2.7272290000     0.4253230000
| 19>  H        0.7524150000     1.6165280000    -1.1930080000
| 20>  H        1.8735330000     2.1015860000     0.0066340000
| 21>  H        0.9517990000    -0.5761790000    -1.9441500000
| 22>  H        3.1651600000    -1.1406700000     0.6610830000
| 23>  H        2.8473320000     0.4192670000     1.4338270000
| 24>  H        4.6412260000     0.1085350000    -1.0346320000
| 25>  H        5.2640770000    -0.0084290000     0.5822850000
| 26>  H        5.6735880000     2.2451770000    -0.2783590000
| 27> *
| 28>
| 29>                          ****END OF INPUT****
 Total Charge           Charge          ....    0
 Multiplicity           Mult            ....    1
 Number of Electrons    NEL             ....   54
 Basis Dimension        Dim             ....  138

MULLIKEN ATOMIC CHARGES
-----------------------
   0 N :   -0.035988
   1 C :   -0.241882
   2 N :   -0.113051
   3 C :    0.085522
   4 C :   -0.015027
   5 C :    0.090402
   6 O :   -0.179171
   7 H :    0.097222
   8 H :    0.103833
   9 H :    0.065073
  10 H :    0.022659
  11 H :    0.021206
  12 H :    0.049273
  13 H :    0.047291
  14 H :    0.002638
Sum of atomic charges:   -0.0000000

LOEWDIN ATOMIC CHARGES
----------------------
   0 N :   -0.010681
   1 C :   -0.004428
   2 N :   -0.187416
   3 C :   -0.041929
   4 C :   -0.074557
   5 C :    0.102475
   6 O :   -0.115717
   7 H :    0.062097
   8 H :    0.055172
   9 H :    0.034206
  10 H :    0.044574
  11 H :    0.031403
  12 H :    0.055096
  13 H :    0.054033
  14 H :   -0.004328

  Mayer bond orders larger than 0.1
B(  0-N ,  1-C ) :   1.2546 B(  0-N ,  2-N ) :   0.1095 B(  0-N ,  7-H ) :   0.9490
B(  0-N ,  8-H ) :   0.9109 B(  1-C ,  2-N ) :   2.0011 B(  1-C ,  3-C ) :   0.9920
B(  2-N ,  9-H ) :   0.9328 B(  3-C ,  4-C ) :   1.0963 B(  3-C , 10-H ) :   0.9022
B(  3-C , 11-H ) :   0.9253 B(  4-C ,  5-C ) :   0.9865 B(  4-C , 12-H ) :   0.8959
B(  4-C , 13-H ) :   0.9020 B(  5-C ,  6-O ) :   2.1076 B(  5-C , 14-H ) :   0.9247

FINAL SINGLE POINT ENERGY      -341.295110047539

DIPOLE MOMENT
-------------
                                X             Y             Z
Electronic contribution:     -0.58918       2.39106       0.10831
Nuclear contribution   :      1.07955      -1.86401      -0.22637
                        -----------------------------------------
Total Dipole Moment    :      0.49037       0.52705      -0.11805
                        -----------------------------------------
Magnitude (a.u.)       :      0.72951
Magnitude (Debye)      :      1.85426

                             ****ORCA TERMINATED NORMALLY****
TOTAL RUN TIME: 0 days 0 hours 0 minutes 7 seconds 14 msec
