                         Program Version 3.0.3 - RELEASE   -
|  1> ! RI PBE def2-SVP def2-SVP/J NBO PAL2
|  2> % maxcore 2000
|  3> % output
|  4>     # printlevel mini
|  5>     print[ P_Basis ] 0
|  6>     print[ P_SCFInfo ] 1
|  7>     print[ P_SCFIterInfo ] 1
|  8>     print[ P_OrbEn ] 0
|  9>     print[ P_Cartesian ] 0
| 10> end
| 11> *xyz 0 1
| 12>  N        0.9153450000    -0.0321150000    -0.1715200000
| 13>  C        2.1697140000    -0.0382780000     0.0256560000
| 14>  N        2.8121550000    -0.6251100000     1.1114450000
| 15>  C        4.1611410000    -0.6591030000     1.3698270000
| 16>  O        4.6224160000    -1.1948410000     2.3425290000
| 17>  C        3.0245400000     0.6063310000    -0.9345320000
| 18>  C        3.7199100000     1.1492170000    -1.7469310000
| 19>  H        0.4118850000    -0.5166050000     0.5709270000
| 20>  H        2.2317200000    -1.0844110000     1.7999260000
| 21>  H        4.7615190000    -0.1503200000     0.6008950000
| 22>  H        4.3265430000     1.6344350000    -2.4759220000
| 23> *
| 24>
| 25>                          ****END OF INPUT****
 Total Charge           Charge          ....    0
 Multiplicity           Mult            ....    1
 Number of Electrons    NEL             ....   50
 Basis Dimension        Dim             ....  118

MULLIKEN ATOMIC CHARGES
-----------------------
   0 N :   -0.049147
   1 C :   -0.083349
   2 N :   -0.050164
   3 C :    0.134333
   4 O :   -0.191429
   5 C :    0.384334
   6 C :   -0.395511
   7 H :    0.090992
   8 H :    0.120251
   9 H :    0.017976
  10 H :    0.021713
Sum of atomic charges:   -0.0000000

LOEWDIN ATOMIC CHARGES
----------------------
   0 N :   -0.097687
   1 C :    0.001764
   2 N :    0.024272
   3 C :    0.072908
   4 O :   -0.144760
   5 C :   -0.023312
   6 C :   -0.015046
   7 H :    0.049493
   8 H :    0.084767
   9 H :    0.002811
  10 H :    0.044789

  Mayer bond orders larger than 0.1
B(  0-N ,  1-C ) :   2.0193 B(  0-N ,  7-H ) :   0.9161 B(  1-C ,  2-N ) :   1.0996
B(  1-C ,  5-C ) :   0.9252 B(  2-N ,  3-C ) :   1.1093 B(  2-N ,  8-H ) :   0.9026
B(  3-C ,  4-O ) :   2.0986 B(  3-C ,  9-H ) :   0.9172 B(  5-C ,  6-C ) :   2.3333
B(  5-C , 10-H ) :  -0.1001 B(  6-C , 10-H ) :   1.0901

FINAL SINGLE POINT ENERGY      -338.836765294181

DIPOLE MOMENT
-------------
                                X             Y             Z
Electronic contribution:      0.38635      -0.36719       0.67695
Nuclear contribution   :     -0.50652       0.48760      -0.89874
                        -----------------------------------------
Total Dipole Moment    :     -0.12018       0.12040      -0.22179
                        -----------------------------------------
Magnitude (a.u.)       :      0.27952
Magnitude (Debye)      :      0.71048

                             ****ORCA TERMINATED NORMALLY****
TOTAL RUN TIME: 0 days 0 hours 0 minutes 5 seconds 558 msec
