                         Program Version 3.0.3 - RELEASE   -
|  1> ! RI PBE def2-SVP def2-SVP/J NBO PAL2
|  2> % maxcore 2000
|  3> % output
|  4>     # printlevel mini
|  5>     print[ P_Basis ] 0
|  6>     print[ P_SCFInfo ] 1
|  7>     print[ P_SCFIterInfo ] 1
|  8>     print[ P_OrbEn ] 0
|  9>     print[ P_Cartesian ] 0
| 10> end
| 11> *xyz 0 1
| 12>  N        1.0027450000     0.0344290000     0.2653100000
| 13>  C        2.2591800000    -0.1000950000     0.2722870000
| 14>  N        3.0455700000     0.7914250000    -0.4295120000
| 15>  C        4.4149800000     0.7199230000    -0.4763610000
| 16>  O        5.0673160000    -0.1261400000     0.0883510000
| 17>  C        5.0162600000     1.7693240000    -1.2800260000
| 18>  C        5.5398740000     2.6252580000    -1.9379980000
| 19>  H        0.5637480000    -0.6918500000     0.8225820000
| 20>  H        2.8422940000    -0.8659150000     0.7846460000
| 21>  H        2.5684930000     1.5280480000    -0.9283760000
| 22>  H        6.0161420000     3.3797830000    -2.5204110000
| 23> *
| 24>
| 25>                          ****END OF INPUT****
 Total Charge           Charge          ....    0
 Multiplicity           Mult            ....    1
 Number of Electrons    NEL             ....   50
 Basis Dimension        Dim             ....  118

MULLIKEN ATOMIC CHARGES
-----------------------
   0 N :   -0.112182
   1 C :   -0.005553
   2 N :   -0.054790
   3 C :    0.092803
   4 O :   -0.171690
   5 C :    0.364227
   6 C :   -0.405200
   7 H :    0.109666
   8 H :    0.029137
   9 H :    0.129331
  10 H :    0.024250
Sum of atomic charges:   -0.0000000

LOEWDIN ATOMIC CHARGES
----------------------
   0 N :   -0.128100
   1 C :    0.046372
   2 N :    0.044404
   3 C :    0.025191
   4 O :   -0.138290
   5 C :   -0.046607
   6 C :   -0.010684
   7 H :    0.060112
   8 H :    0.011141
   9 H :    0.091845
  10 H :    0.044616

  Mayer bond orders larger than 0.1
B(  0-N ,  1-C ) :   1.9609 B(  0-N ,  7-H ) :   0.9349 B(  1-C ,  2-N ) :   1.0884
B(  1-C ,  8-H ) :   0.9443 B(  2-N ,  3-C ) :   1.1590 B(  2-N ,  9-H ) :   0.9069
B(  3-C ,  4-O ) :   2.0742 B(  3-C ,  5-C ) :   0.8560 B(  5-C ,  6-C ) :   2.3563
B(  6-C , 10-H ) :   1.0849

FINAL SINGLE POINT ENERGY      -338.844110723519

DIPOLE MOMENT
-------------
                                X             Y             Z
Electronic contribution:      2.42609       0.22168      -0.33302
Nuclear contribution   :     -2.68449       0.26898      -0.00317
                        -----------------------------------------
Total Dipole Moment    :     -0.25840       0.49066      -0.33618
                        -----------------------------------------
Magnitude (a.u.)       :      0.64849
Magnitude (Debye)      :      1.64832

                             ****ORCA TERMINATED NORMALLY****
TOTAL RUN TIME: 0 days 0 hours 0 minutes 5 seconds 852 msec
