                         Program Version 3.0.3 - RELEASE   -
|  1> ! RI PBE def2-SVP def2-SVP/J NBO PAL2
|  2> % maxcore 2000
|  3> % output
|  4>     # printlevel mini
|  5>     print[ P_Basis ] 0
|  6>     print[ P_SCFInfo ] 1
|  7>     print[ P_SCFIterInfo ] 1
|  8>     print[ P_OrbEn ] 0
|  9>     print[ P_Cartesian ] 0
| 10> end
| 11> *xyz 0 1
| 12>  N        1.1448040000    -0.0512310000     0.3004560000
| 13>  C        2.4664500000    -0.3238430000     0.3200350000
| 14>  N        3.1006720000    -1.2480800000     0.9320530000
| 15>  C        3.2628090000     0.6499660000    -0.5326120000
| 16>  O        2.6761410000     1.5336870000    -1.1206760000
| 17>  C        4.7221480000     0.4509650000    -0.5885990000
| 18>  C        5.4825630000     1.2643270000    -1.3143100000
| 19>  H        0.4821440000    -0.6014570000     0.8124520000
| 20>  H        0.8391360000     0.7328680000    -0.2516860000
| 21>  H        2.4777060000    -1.8453860000     1.4741180000
| 22>  H        5.1211340000    -0.3763470000    -0.0168420000
| 23>  H        5.0360980000     2.0814410000    -1.8715750000
| 24>  H        6.5570840000     1.1368790000    -1.3700150000
| 25> *
| 26>
| 27>                          ****END OF INPUT****
 Total Charge           Charge          ....    0
 Multiplicity           Mult            ....    1
 Number of Electrons    NEL             ....   52
 Basis Dimension        Dim             ....  128

MULLIKEN ATOMIC CHARGES
-----------------------
   0 N :    0.003638
   1 C :   -0.231873
   2 N :   -0.068443
   3 C :    0.093282
   4 O :   -0.169037
   5 C :   -0.056977
   6 C :    0.036184
   7 H :    0.104820
   8 H :    0.111741
   9 H :    0.078711
  10 H :    0.022438
  11 H :    0.037690
  12 H :    0.037825
Sum of atomic charges:   -0.0000000

LOEWDIN ATOMIC CHARGES
----------------------
   0 N :    0.016983
   1 C :   -0.032272
   2 N :   -0.151842
   3 C :    0.048754
   4 O :   -0.124407
   5 C :   -0.057626
   6 C :    0.021305
   7 H :    0.068833
   8 H :    0.070046
   9 H :    0.042730
  10 H :    0.036095
  11 H :    0.029849
  12 H :    0.031550

  Mayer bond orders larger than 0.1
B(  0-N ,  1-C ) :   1.3399 B(  0-N ,  2-N ) :   0.1309 B(  0-N ,  7-H ) :   0.9438
B(  0-N ,  8-H ) :   0.8946 B(  1-C ,  2-N ) :   1.9929 B(  1-C ,  3-C ) :   0.8424
B(  2-N ,  9-H ) :   0.9262 B(  3-C ,  4-O ) :   2.1183 B(  3-C ,  5-C ) :   1.0494
B(  5-C ,  6-C ) :   1.8953 B(  5-C , 10-H ) :   0.9439 B(  6-C , 11-H ) :   0.9309
B(  6-C , 12-H ) :   0.9419

FINAL SINGLE POINT ENERGY      -340.084454511150

DIPOLE MOMENT
-------------
                                X             Y             Z
Electronic contribution:     -1.84642       0.53359      -0.14472
Nuclear contribution   :      1.18908      -0.77040       0.41639
                        -----------------------------------------
Total Dipole Moment    :     -0.65735      -0.23681       0.27167
                        -----------------------------------------
Magnitude (a.u.)       :      0.74966
Magnitude (Debye)      :      1.90548

                             ****ORCA TERMINATED NORMALLY****
TOTAL RUN TIME: 0 days 0 hours 0 minutes 6 seconds 572 msec
