                         Program Version 3.0.3 - RELEASE   -
|  1> ! RI PBE def2-SVP def2-SVP/J NBO PAL2
|  2> % maxcore 2000
|  3> % output
|  4>     # printlevel mini
|  5>     print[ P_Basis ] 0
|  6>     print[ P_SCFInfo ] 1
|  7>     print[ P_SCFIterInfo ] 1
|  8>     print[ P_OrbEn ] 0
|  9>     print[ P_Cartesian ] 0
| 10> end
| 11> *xyz 0 1
| 12>  N        1.5829070000    -0.0247900000    -1.0522730000
| 13>  C        1.9934640000    -0.1052120000     0.2341940000
| 14>  N        2.2454270000    -1.1195550000     0.9616530000
| 15>  C        2.1815210000     1.2630760000     0.8540200000
| 16>  O        1.9092670000     2.2656250000     0.2337300000
| 17>  C        2.6871450000     1.3062850000     2.2022430000
| 18>  C        3.1087780000     1.4208970000     3.3206050000
| 19>  H        1.2820970000    -0.8414300000    -1.5503870000
| 20>  H        1.3428610000     0.8871040000    -1.4053970000
| 21>  H        2.0861440000    -1.9967500000     0.4675850000
| 22>  H        3.4831100000     1.5071510000     4.3141080000
| 23> *
| 24>
| 25>                          ****END OF INPUT****
 Total Charge           Charge          ....    0
 Multiplicity           Mult            ....    1
 Number of Electrons    NEL             ....   50
 Basis Dimension        Dim             ....  118

MULLIKEN ATOMIC CHARGES
-----------------------
   0 N :   -0.005774
   1 C :   -0.248620
   2 N :   -0.024970
   3 C :    0.088014
   4 O :   -0.144736
   5 C :    0.442790
   6 C :   -0.430359
   7 H :    0.109352
   8 H :    0.113001
   9 H :    0.081602
  10 H :    0.019700
Sum of atomic charges:   -0.0000000

LOEWDIN ATOMIC CHARGES
----------------------
   0 N :    0.012956
   1 C :   -0.034543
   2 N :   -0.134061
   3 C :    0.037501
   4 O :   -0.095552
   5 C :   -0.020325
   6 C :    0.003915
   7 H :    0.071211
   8 H :    0.070782
   9 H :    0.045019
  10 H :    0.043096

  Mayer bond orders larger than 0.1
B(  0-N ,  1-C ) :   1.3271 B(  0-N ,  2-N ) :   0.1329 B(  0-N ,  7-H ) :   0.9441
B(  0-N ,  8-H ) :   0.8971 B(  1-C ,  2-N ) :   2.0415 B(  1-C ,  3-C ) :   0.8373
B(  2-N ,  9-H ) :   0.9249 B(  3-C ,  4-O ) :   2.1216 B(  3-C ,  5-C ) :   0.9091
B(  4-O ,  6-C ) :   0.1085 B(  5-C ,  6-C ) :   2.2650 B(  5-C , 10-H ) :  -0.1024
B(  6-C , 10-H ) :   1.0900

FINAL SINGLE POINT ENERGY      -338.829322123410

DIPOLE MOMENT
-------------
                                X             Y             Z
Electronic contribution:      0.33013       2.41048       1.00923
Nuclear contribution   :     -0.60702      -3.00169      -1.57599
                        -----------------------------------------
Total Dipole Moment    :     -0.27689      -0.59121      -0.56675
                        -----------------------------------------
Magnitude (a.u.)       :      0.86452
Magnitude (Debye)      :      2.19745

                             ****ORCA TERMINATED NORMALLY****
TOTAL RUN TIME: 0 days 0 hours 0 minutes 5 seconds 913 msec
