                         Program Version 3.0.3 - RELEASE   -
|  1> ! RI PBE def2-SVP def2-SVP/J NBO PAL2
|  2> % maxcore 2000
|  3> % output
|  4>     # printlevel mini
|  5>     print[ P_Basis ] 0
|  6>     print[ P_SCFInfo ] 1
|  7>     print[ P_SCFIterInfo ] 1
|  8>     print[ P_OrbEn ] 0
|  9>     print[ P_Cartesian ] 0
| 10> end
| 11> *xyz 0 1
| 12>  N        2.8100950000    -1.1325240000    -1.3468830000
| 13>  C        2.9218920000     0.0572400000    -0.6989790000
| 14>  N        2.7869500000     1.2347610000    -1.1639670000
| 15>  C        3.3323960000    -0.0832230000     0.7644270000
| 16>  O        2.7808760000    -1.2381950000     1.3646290000
| 17>  C        4.8260800000    -0.1257970000     0.8639700000
| 18>  C        5.5130240000    -1.0600980000     1.5016650000
| 19>  H        2.4277730000    -1.1668350000    -2.2743580000
| 20>  H        2.7790920000    -1.9684260000    -0.7880080000
| 21>  H        2.5712760000     1.2288090000    -2.1601000000
| 22>  H        2.9775840000     0.8299980000     1.2567740000
| 23>  H        1.8570400000    -1.0617490000     1.5576780000
| 24>  H        5.3255150000     0.6941550000     0.3566860000
| 25>  H        5.0136470000    -1.8764030000     2.0092670000
| 26>  H        6.5954700000    -1.0284220000     1.5352090000
| 27> *
| 28>
| 29>                          ****END OF INPUT****
 Total Charge           Charge          ....    0
 Multiplicity           Mult            ....    1
 Number of Electrons    NEL             ....   54
 Basis Dimension        Dim             ....  138

MULLIKEN ATOMIC CHARGES
-----------------------
   0 N :   -0.018721
   1 C :   -0.254802
   2 N :   -0.110165
   3 C :    0.220618
   4 O :   -0.254238
   5 C :   -0.074637
   6 C :   -0.014423
   7 H :    0.101961
   8 H :    0.098864
   9 H :    0.068049
  10 H :    0.016049
  11 H :    0.162432
  12 H :    0.009829
  13 H :    0.023213
  14 H :    0.025971
Sum of atomic charges:   -0.0000000

LOEWDIN ATOMIC CHARGES
----------------------
   0 N :    0.001850
   1 C :   -0.019644
   2 N :   -0.186360
   3 C :    0.041197
   4 O :   -0.096963
   5 C :   -0.034173
   6 C :   -0.061308
   7 H :    0.065316
   8 H :    0.061967
   9 H :    0.036731
  10 H :    0.031307
  11 H :    0.077489
  12 H :    0.033692
  13 H :    0.022805
  14 H :    0.026093

  Mayer bond orders larger than 0.1
B(  0-N ,  1-C ) :   1.2708 B(  0-N ,  2-N ) :   0.1175 B(  0-N ,  7-H ) :   0.9504
B(  0-N ,  8-H ) :   0.9096 B(  1-C ,  2-N ) :   1.9631 B(  1-C ,  3-C ) :   0.9023
B(  2-N ,  9-H ) :   0.9287 B(  3-C ,  4-O ) :   1.0571 B(  3-C ,  5-C ) :   1.0286
B(  3-C , 10-H ) :   0.8866 B(  4-O , 11-H ) :   0.9781 B(  5-C ,  6-C ) :   2.0067
B(  5-C , 12-H ) :   0.9470 B(  6-C , 13-H ) :   0.9360 B(  6-C , 14-H ) :   0.9407

FINAL SINGLE POINT ENERGY      -341.266260671266

DIPOLE MOMENT
-------------
                                X             Y             Z
Electronic contribution:     -2.00443       0.47843      -0.46959
Nuclear contribution   :      1.31659      -1.29070       0.10075
                        -----------------------------------------
Total Dipole Moment    :     -0.68785      -0.81227      -0.36884
                        -----------------------------------------
Magnitude (a.u.)       :      1.12648
Magnitude (Debye)      :      2.86329

                             ****ORCA TERMINATED NORMALLY****
TOTAL RUN TIME: 0 days 0 hours 0 minutes 7 seconds 381 msec
