                         Program Version 3.0.3 - RELEASE   -
|  1> ! RI PBE def2-SVP def2-SVP/J NBO PAL2
|  2> % maxcore 2000
|  3> % output
|  4>     # printlevel mini
|  5>     print[ P_Basis ] 0
|  6>     print[ P_SCFInfo ] 1
|  7>     print[ P_SCFIterInfo ] 1
|  8>     print[ P_OrbEn ] 0
|  9>     print[ P_Cartesian ] 0
| 10> end
| 11> *xyz 0 1
| 12>  N        2.0873920000     0.3551850000    -1.0246630000
| 13>  C        2.2937660000    -0.2307400000     0.1836610000
| 14>  N        1.8029440000    -1.3058060000     0.6472600000
| 15>  C        3.1741430000     0.5609630000     1.1576330000
| 16>  O        3.4019220000    -0.1840890000     2.3083270000
| 17>  C        4.4205750000     0.9827480000     0.5132010000
| 18>  C        5.4205450000     1.3590600000    -0.0337940000
| 19>  H        1.6351100000    -0.1818970000    -1.7446580000
| 20>  H        2.7830830000     1.0119680000    -1.3412810000
| 21>  H        1.2081130000    -1.8078210000    -0.0046820000
| 22>  H        2.6085870000     1.4758170000     1.4023440000
| 23>  H        2.8480990000    -0.9811720000     2.1814310000
| 24>  H        6.3234220000     1.6820970000    -0.4963900000
| 25> *
| 26>
| 27>                          ****END OF INPUT****
 Total Charge           Charge          ....    0
 Multiplicity           Mult            ....    1
 Number of Electrons    NEL             ....   52
 Basis Dimension        Dim             ....  128

MULLIKEN ATOMIC CHARGES
-----------------------
   0 N :   -0.017954
   1 C :   -0.193292
   2 N :   -0.135095
   3 C :    0.202730
   4 O :   -0.232995
   5 C :    0.343338
   6 C :   -0.479102
   7 H :    0.111688
   8 H :    0.118400
   9 H :    0.085923
  10 H :    0.044843
  11 H :    0.146448
  12 H :    0.005068
Sum of atomic charges:   -0.0000000

LOEWDIN ATOMIC CHARGES
----------------------
   0 N :    0.006843
   1 C :    0.008538
   2 N :   -0.160618
   3 C :    0.026567
   4 O :   -0.101269
   5 C :   -0.029485
   6 C :   -0.077130
   7 H :    0.071962
   8 H :    0.076921
   9 H :    0.049111
  10 H :    0.041791
  11 H :    0.049785
  12 H :    0.036985

  Mayer bond orders larger than 0.1
B(  0-N ,  1-C ) :   1.2667 B(  0-N ,  2-N ) :   0.1065 B(  0-N ,  7-H ) :   0.9461
B(  0-N ,  8-H ) :   0.9262 B(  1-C ,  2-N ) :   1.9681 B(  1-C ,  3-C ) :   0.8945
B(  2-N ,  9-H ) :   0.9285 B(  2-N , 11-H ) :   0.1393 B(  3-C ,  4-O ) :   1.2485
B(  3-C ,  5-C ) :   0.8891 B(  3-C , 10-H ) :   0.8904 B(  4-O , 11-H ) :   0.9158
B(  5-C ,  6-C ) :   2.3885 B(  5-C , 12-H ) :  -0.1071 B(  6-C , 12-H ) :   1.0963

FINAL SINGLE POINT ENERGY      -340.025104876601

DIPOLE MOMENT
-------------
                                X             Y             Z
Electronic contribution:      1.03015       0.07872       1.34998
Nuclear contribution   :     -1.48635       0.13461      -3.05533
                        -----------------------------------------
Total Dipole Moment    :     -0.45621       0.21333      -1.70535
                        -----------------------------------------
Magnitude (a.u.)       :      1.77816
Magnitude (Debye)      :      4.51972

                             ****ORCA TERMINATED NORMALLY****
TOTAL RUN TIME: 0 days 0 hours 0 minutes 6 seconds 56 msec
