                         Program Version 3.0.3 - RELEASE   -
|  1> ! RI PBE def2-SVP def2-SVP/J NBO PAL2
|  2> % maxcore 2000
|  3> % output
|  4>     # printlevel mini
|  5>     print[ P_Basis ] 0
|  6>     print[ P_SCFInfo ] 1
|  7>     print[ P_SCFIterInfo ] 1
|  8>     print[ P_OrbEn ] 0
|  9>     print[ P_Cartesian ] 0
| 10> end
| 11> *xyz 0 1
| 12>  N        1.6968130000    -1.4853190000    -1.1101770000
| 13>  C        1.4187320000    -0.3210470000    -0.4726580000
| 14>  N        0.3159930000     0.3120390000    -0.4171010000
| 15>  C        2.5811450000     0.3002000000     0.2685560000
| 16>  O        3.7418390000    -0.4900390000     0.1327780000
| 17>  C        4.8548180000    -0.0450440000     0.7494800000
| 18>  C        4.9975950000     1.0567330000     1.4773210000
| 19>  H        0.9845510000    -1.9664980000    -1.6266380000
| 20>  H        2.6224440000    -1.8706090000    -1.0661250000
| 21>  H       -0.4221510000    -0.1594680000    -0.9355170000
| 22>  H        2.3074600000     0.3999110000     1.3239220000
| 23>  H        2.7528150000     1.3043320000    -0.1325460000
| 24>  H        5.6776860000    -0.7300050000     0.5757840000
| 25>  H        4.1966700000     1.7575730000     1.6675900000
| 26>  H        5.9665090000     1.2701420000     1.9061520000
| 27> *
| 28>
| 29>                          ****END OF INPUT****
 Total Charge           Charge          ....    0
 Multiplicity           Mult            ....    1
 Number of Electrons    NEL             ....   54
 Basis Dimension        Dim             ....  138

MULLIKEN ATOMIC CHARGES
-----------------------
   0 N :   -0.022672
   1 C :   -0.229376
   2 N :   -0.138826
   3 C :    0.223200
   4 O :   -0.282831
   5 C :    0.108231
   6 C :   -0.109646
   7 H :    0.103144
   8 H :    0.109609
   9 H :    0.070717
  10 H :    0.046415
  11 H :    0.044455
  12 H :    0.012782
  13 H :    0.039044
  14 H :    0.025754
Sum of atomic charges:   -0.0000000

LOEWDIN ATOMIC CHARGES
----------------------
   0 N :    0.002801
   1 C :   -0.012710
   2 N :   -0.192088
   3 C :    0.068798
   4 O :   -0.071967
   5 C :    0.032038
   6 C :   -0.147699
   7 H :    0.067063
   8 H :    0.065106
   9 H :    0.037274
  10 H :    0.033465
  11 H :    0.033517
  12 H :    0.023615
  13 H :    0.026988
  14 H :    0.033799

  Mayer bond orders larger than 0.1
B(  0-N ,  1-C ) :   1.2874 B(  0-N ,  2-N ) :   0.1224 B(  0-N ,  7-H ) :   0.9484
B(  0-N ,  8-H ) :   0.9120 B(  1-C ,  2-N ) :   1.9551 B(  1-C ,  3-C ) :   0.9426
B(  2-N ,  9-H ) :   0.9306 B(  3-C ,  4-O ) :   0.9630 B(  3-C , 10-H ) :   0.9284
B(  3-C , 11-H ) :   0.9257 B(  4-O ,  5-C ) :   1.1328 B(  4-O ,  6-C ) :   0.1009
B(  5-C ,  6-C ) :   1.8754 B(  5-C , 12-H ) :   0.9650 B(  6-C , 13-H ) :   0.9510
B(  6-C , 14-H ) :   0.9352

FINAL SINGLE POINT ENERGY      -341.263304876619

DIPOLE MOMENT
-------------
                                X             Y             Z
Electronic contribution:     -1.31159      -1.82896      -1.53666
Nuclear contribution   :      1.69788       0.92166       1.09235
                        -----------------------------------------
Total Dipole Moment    :      0.38629      -0.90730      -0.44431
                        -----------------------------------------
Magnitude (a.u.)       :      1.08159
Magnitude (Debye)      :      2.74917

                             ****ORCA TERMINATED NORMALLY****
TOTAL RUN TIME: 0 days 0 hours 0 minutes 6 seconds 836 msec
