                         Program Version 3.0.3 - RELEASE   -
|  1> ! RI PBE def2-SVP def2-SVP/J NBO PAL2
|  2> % maxcore 2000
|  3> % output
|  4>     # printlevel mini
|  5>     print[ P_Basis ] 0
|  6>     print[ P_SCFInfo ] 1
|  7>     print[ P_SCFIterInfo ] 1
|  8>     print[ P_OrbEn ] 0
|  9>     print[ P_Cartesian ] 0
| 10> end
| 11> *xyz 0 1
| 12>  N        0.2787250000     0.1746080000    -3.5377530000
| 13>  C        1.4873810000     0.3517390000    -3.2053380000
| 14>  N        2.0775440000     1.5884250000    -3.3223390000
| 15>  O        3.0884520000     1.8090190000    -2.3826100000
| 16>  C        4.2357240000     2.2885640000    -3.0217880000
| 17>  C        4.3683280000     3.7574010000    -3.2505310000
| 18>  C        5.1459140000     3.0753390000    -2.1557180000
| 19>  H        0.0327720000    -0.8082340000    -3.4866170000
| 20>  H        2.1907080000    -0.4100630000    -2.8558460000
| 21>  H        1.4168750000     2.3579790000    -3.3296140000
| 22>  H        4.6493830000     1.6041400000    -3.7560200000
| 23>  H        3.5382080000     4.3812940000    -2.9431490000
| 24>  H        4.8915050000     4.0939040000    -4.1365970000
| 25>  H        4.8160000000     3.2474120000    -1.1390290000
| 26>  H        6.2124900000     2.9346630000    -2.2736520000
| 27> *
| 28>
| 29>                          ****END OF INPUT****
 Total Charge           Charge          ....    0
 Multiplicity           Mult            ....    1
 Number of Electrons    NEL             ....   54
 Basis Dimension        Dim             ....  138

MULLIKEN ATOMIC CHARGES
-----------------------
   0 N :   -0.160172
   1 C :    0.010369
   2 N :    0.022933
   3 O :   -0.269347
   4 C :    0.082860
   5 C :   -0.055191
   6 C :   -0.055276
   7 H :    0.097674
   8 H :    0.000847
   9 H :    0.121262
  10 H :    0.018936
  11 H :    0.039412
  12 H :    0.042783
  13 H :    0.051832
  14 H :    0.051079
Sum of atomic charges:    0.0000000

LOEWDIN ATOMIC CHARGES
----------------------
   0 N :   -0.163537
   1 C :    0.009330
   2 N :    0.071042
   3 O :   -0.089057
   4 C :    0.027882
   5 C :   -0.061624
   6 C :   -0.050378
   7 H :    0.053756
   8 H :   -0.002336
   9 H :    0.061803
  10 H :    0.011630
  11 H :    0.031398
  12 H :    0.030610
  13 H :    0.036104
  14 H :    0.033377

  Mayer bond orders larger than 0.1
B(  0-N ,  1-C ) :   1.9248 B(  0-N ,  7-H ) :   0.9353 B(  1-C ,  2-N ) :   1.1413
B(  1-C ,  8-H ) :   0.9379 B(  2-N ,  3-O ) :   0.9191 B(  2-N ,  9-H ) :   0.9230
B(  3-O ,  4-C ) :   1.0289 B(  4-C ,  5-C ) :   1.0093 B(  4-C ,  6-C ) :   0.9934
B(  4-C , 10-H ) :   0.9441 B(  5-C ,  6-C ) :   1.0291 B(  5-C , 11-H ) :   0.9398
B(  5-C , 12-H ) :   0.9469 B(  6-C , 13-H ) :   0.9451 B(  6-C , 14-H ) :   0.9472

FINAL SINGLE POINT ENERGY      -341.195773726821

DIPOLE MOMENT
-------------
                                X             Y             Z
Electronic contribution:     -3.30020      -2.37135       0.17239
Nuclear contribution   :      4.02108       2.44899      -0.09510
                        -----------------------------------------
Total Dipole Moment    :      0.72088       0.07764       0.07728
                        -----------------------------------------
Magnitude (a.u.)       :      0.72915
Magnitude (Debye)      :      1.85336

                             ****ORCA TERMINATED NORMALLY****
TOTAL RUN TIME: 0 days 0 hours 0 minutes 6 seconds 295 msec
