                         Program Version 3.0.3 - RELEASE   -
|  1> ! RI PBE def2-SVP def2-SVP/J NBO PAL2
|  2> % maxcore 2000
|  3> % output
|  4>     # printlevel mini
|  5>     print[ P_Basis ] 0
|  6>     print[ P_SCFInfo ] 1
|  7>     print[ P_SCFIterInfo ] 1
|  8>     print[ P_OrbEn ] 0
|  9>     print[ P_Cartesian ] 0
| 10> end
| 11> *xyz 0 1
| 12>  N        1.2611720000    -1.6678250000    -1.7555980000
| 13>  C        2.4984730000    -2.0560540000    -1.2985740000
| 14>  N        2.8527140000    -3.1647820000    -0.7979450000
| 15>  O        3.3733550000    -1.0498190000    -1.4933120000
| 16>  C        4.7158440000    -1.3300980000    -1.1950230000
| 17>  C        5.6074040000    -1.7560480000    -2.3056400000
| 18>  C        5.6942960000    -0.3597600000    -1.7439140000
| 19>  H        0.4739340000    -2.1602120000    -1.3721230000
| 20>  H        1.1301320000    -0.6750120000    -1.8586690000
| 21>  H        2.0706700000    -3.8059540000    -0.7248510000
| 22>  H        4.8599740000    -1.7582960000    -0.2116890000
| 23>  H        5.1509130000    -1.8657580000    -3.2810850000
| 24>  H        6.3929230000    -2.4669340000    -2.0837460000
| 25>  H        5.2985040000     0.4423790000    -2.3541140000
| 26>  H        6.5445940000    -0.0901280000    -1.1305180000
| 27> *
| 28>
| 29>                          ****END OF INPUT****
 Total Charge           Charge          ....    0
 Multiplicity           Mult            ....    1
 Number of Electrons    NEL             ....   54
 Basis Dimension        Dim             ....  138

MULLIKEN ATOMIC CHARGES
-----------------------
   0 N :   -0.077310
   1 C :   -0.013146
   2 N :   -0.159919
   3 O :   -0.245409
   4 C :    0.095086
   5 C :   -0.045837
   6 C :   -0.040679
   7 H :    0.110181
   8 H :    0.115399
   9 H :    0.075768
  10 H :    0.026975
  11 H :    0.038693
  12 H :    0.042648
  13 H :    0.041119
  14 H :    0.036431
Sum of atomic charges:   -0.0000000

LOEWDIN ATOMIC CHARGES
----------------------
   0 N :   -0.028515
   1 C :    0.027284
   2 N :   -0.209703
   3 O :   -0.068751
   4 C :    0.054705
   5 C :   -0.050665
   6 C :   -0.053405
   7 H :    0.069220
   8 H :    0.070767
   9 H :    0.045291
  10 H :    0.019172
  11 H :    0.032541
  12 H :    0.031157
  13 H :    0.031667
  14 H :    0.029235

  Mayer bond orders larger than 0.1
B(  0-N ,  1-C ) :   1.1858 B(  0-N ,  7-H ) :   0.9556 B(  0-N ,  8-H ) :   0.9362
B(  1-C ,  2-N ) :   1.8651 B(  1-C ,  3-O ) :   1.1396 B(  2-N ,  9-H ) :   0.9259
B(  3-O ,  4-C ) :   0.9910 B(  4-C ,  5-C ) :   1.0181 B(  4-C ,  6-C ) :   0.9893
B(  4-C , 10-H ) :   0.9408 B(  5-C ,  6-C ) :   1.0392 B(  5-C , 11-H ) :   0.9409
B(  5-C , 12-H ) :   0.9455 B(  6-C , 13-H ) :   0.9426 B(  6-C , 14-H ) :   0.9430

FINAL SINGLE POINT ENERGY      -341.267790320316

DIPOLE MOMENT
-------------
                                X             Y             Z
Electronic contribution:     -3.25221      -0.22213       0.85592
Nuclear contribution   :      2.47723       0.60808      -0.86200
                        -----------------------------------------
Total Dipole Moment    :     -0.77498       0.38595      -0.00608
                        -----------------------------------------
Magnitude (a.u.)       :      0.86579
Magnitude (Debye)      :      2.20067

                             ****ORCA TERMINATED NORMALLY****
TOTAL RUN TIME: 0 days 0 hours 0 minutes 6 seconds 671 msec
