                         Program Version 3.0.3 - RELEASE   -
|  1> ! RI PBE def2-SVP def2-SVP/J NBO PAL2
|  2> % maxcore 2000
|  3> % output
|  4>     # printlevel mini
|  5>     print[ P_Basis ] 0
|  6>     print[ P_SCFInfo ] 1
|  7>     print[ P_SCFIterInfo ] 1
|  8>     print[ P_OrbEn ] 0
|  9>     print[ P_Cartesian ] 0
| 10> end
| 11> *xyz 0 1
| 12>  N        1.4144700000    -0.5221150000    -0.2395520000
| 13>  C        2.5720740000    -0.0308190000    -0.3710850000
| 14>  N        2.7705520000     1.1143770000    -1.1136380000
| 15>  O        3.8469830000     1.8808990000    -0.6697860000
| 16>  C        4.7437040000     2.0875780000    -1.7566330000
| 17>  C        5.8651260000     2.8801870000    -1.2898190000
| 18>  C        6.8016140000     3.5341910000    -0.9259490000
| 19>  H        1.4525570000    -1.4092300000     0.2511150000
| 20>  H        3.5100530000    -0.4423400000     0.0137150000
| 21>  H        1.9386960000     1.6895270000    -1.1963050000
| 22>  H        4.2284520000     2.6076880000    -2.5732360000
| 23>  H        5.0923860000     1.1224930000    -2.1417140000
| 24>  H        7.6312310000     4.1156650000    -0.5988930000
| 25> *
| 26>
| 27>                          ****END OF INPUT****
 Total Charge           Charge          ....    0
 Multiplicity           Mult            ....    1
 Number of Electrons    NEL             ....   52
 Basis Dimension        Dim             ....  128

MULLIKEN ATOMIC CHARGES
-----------------------
   0 N :   -0.161049
   1 C :    0.012983
   2 N :    0.014155
   3 O :   -0.307299
   4 C :    0.276424
   5 C :    0.288514
   6 C :   -0.430756
   7 H :    0.102130
   8 H :    0.004137
   9 H :    0.125480
  10 H :    0.031851
  11 H :    0.032138
  12 H :    0.011292
Sum of atomic charges:    0.0000000

LOEWDIN ATOMIC CHARGES
----------------------
   0 N :   -0.158831
   1 C :    0.012399
   2 N :    0.065036
   3 O :   -0.107103
   4 C :    0.052246
   5 C :   -0.034431
   6 C :   -0.050302
   7 H :    0.056039
   8 H :   -0.001296
   9 H :    0.064823
  10 H :    0.031293
  11 H :    0.031168
  12 H :    0.038958

  Mayer bond orders larger than 0.1
B(  0-N ,  1-C ) :   1.9353 B(  0-N ,  7-H ) :   0.9363 B(  1-C ,  2-N ) :   1.1313
B(  1-C ,  8-H ) :   0.9366 B(  2-N ,  3-O ) :   0.9338 B(  2-N ,  9-H ) :   0.9233
B(  3-O ,  4-C ) :   0.9616 B(  4-C ,  5-C ) :   1.0135 B(  4-C , 10-H ) :   0.9147
B(  4-C , 11-H ) :   0.9152 B(  5-C ,  6-C ) :   2.4086 B(  6-C , 12-H ) :   1.0874

FINAL SINGLE POINT ENERGY      -339.948822942040

DIPOLE MOMENT
-------------
                                X             Y             Z
Electronic contribution:      0.30321       1.31930       0.60211
Nuclear contribution   :      0.31173      -1.28412      -0.79639
                        -----------------------------------------
Total Dipole Moment    :      0.61494       0.03518      -0.19428
                        -----------------------------------------
Magnitude (a.u.)       :      0.64586
Magnitude (Debye)      :      1.64164

                             ****ORCA TERMINATED NORMALLY****
TOTAL RUN TIME: 0 days 0 hours 0 minutes 6 seconds 126 msec
