                         Program Version 3.0.3 - RELEASE   -
|  1> ! RI PBE def2-SVP def2-SVP/J NBO PAL2
|  2> % maxcore 2000
|  3> % output
|  4>     # printlevel mini
|  5>     print[ P_Basis ] 0
|  6>     print[ P_SCFInfo ] 1
|  7>     print[ P_SCFIterInfo ] 1
|  8>     print[ P_OrbEn ] 0
|  9>     print[ P_Cartesian ] 0
| 10> end
| 11> *xyz 0 1
| 12>  N        2.5311490000    -2.0217710000    -3.6808050000
| 13>  C        3.1163600000    -1.3338780000    -2.6441600000
| 14>  N        2.5770360000    -0.5618580000    -1.7943040000
| 15>  O        4.4411040000    -1.5512150000    -2.6576570000
| 16>  C        5.2011440000    -0.8270570000    -1.6902130000
| 17>  C        6.6417700000    -1.0774900000    -1.9596580000
| 18>  C        7.5048330000    -1.4798340000    -1.0392010000
| 19>  H        1.5508190000    -2.2183570000    -3.5835490000
| 20>  H        3.0786690000    -2.7749120000    -4.0634400000
| 21>  H        1.5751190000    -0.4937170000    -1.9331160000
| 22>  H        4.9161070000    -1.1426290000    -0.6835100000
| 23>  H        4.9562900000     0.2361700000    -1.7807170000
| 24>  H        6.9775460000    -0.8793390000    -2.9747960000
| 25>  H        7.1890140000    -1.6891180000    -0.0218360000
| 26>  H        8.5572340000    -1.6070960000    -1.2641280000
| 27> *
| 28>
| 29>                          ****END OF INPUT****
 Total Charge           Charge          ....    0
 Multiplicity           Mult            ....    1
 Number of Electrons    NEL             ....   54
 Basis Dimension        Dim             ....  138

MULLIKEN ATOMIC CHARGES
-----------------------
   0 N :   -0.075554
   1 C :   -0.022949
   2 N :   -0.166346
   3 O :   -0.280840
   4 C :    0.252945
   5 C :   -0.086039
   6 C :   -0.035415
   7 H :    0.111567
   8 H :    0.117362
   9 H :    0.076218
  10 H :    0.010738
  11 H :    0.034594
  12 H :    0.010184
  13 H :    0.023226
  14 H :    0.030309
Sum of atomic charges:   -0.0000000

LOEWDIN ATOMIC CHARGES
----------------------
   0 N :   -0.028359
   1 C :    0.023796
   2 N :   -0.214015
   3 O :   -0.085855
   4 C :    0.078625
   5 C :   -0.038679
   6 C :   -0.052285
   7 H :    0.069609
   8 H :    0.071830
   9 H :    0.045778
  10 H :    0.021904
  11 H :    0.029059
  12 H :    0.028169
  13 H :    0.023883
  14 H :    0.026539

  Mayer bond orders larger than 0.1
B(  0-N ,  1-C ) :   1.1898 B(  0-N ,  7-H ) :   0.9544 B(  0-N ,  8-H ) :   0.9368
B(  1-C ,  2-N ) :   1.8441 B(  1-C ,  3-O ) :   1.1695 B(  2-N ,  9-H ) :   0.9249
B(  3-O ,  4-C ) :   0.9116 B(  4-C ,  5-C ) :   1.0363 B(  4-C , 10-H ) :   0.9424
B(  4-C , 11-H ) :   0.9233 B(  5-C ,  6-C ) :   2.0145 B(  5-C , 12-H ) :   0.9558
B(  6-C , 13-H ) :   0.9459 B(  6-C , 14-H ) :   0.9469

FINAL SINGLE POINT ENERGY      -341.271235469594

DIPOLE MOMENT
-------------
                                X             Y             Z
Electronic contribution:     -2.87973      -0.35939      -1.89493
Nuclear contribution   :      2.53112      -0.29953       1.46231
                        -----------------------------------------
Total Dipole Moment    :     -0.34861      -0.65892      -0.43262
                        -----------------------------------------
Magnitude (a.u.)       :      0.86189
Magnitude (Debye)      :      2.19075

                             ****ORCA TERMINATED NORMALLY****
TOTAL RUN TIME: 0 days 0 hours 0 minutes 6 seconds 719 msec
