                         Program Version 3.0.3 - RELEASE   -
|  1> ! RI PBE def2-SVP def2-SVP/J NBO PAL2
|  2> % maxcore 2000
|  3> % output
|  4>     # printlevel mini
|  5>     print[ P_Basis ] 0
|  6>     print[ P_SCFInfo ] 1
|  7>     print[ P_SCFIterInfo ] 1
|  8>     print[ P_OrbEn ] 0
|  9>     print[ P_Cartesian ] 0
| 10> end
| 11> *xyz 0 1
| 12>  N        1.1668050000    -0.2589490000    -0.2067790000
| 13>  C        2.5287790000    -0.3620410000    -0.0788920000
| 14>  N        3.2521280000    -1.4001000000     0.0055410000
| 15>  O        3.0706660000     0.8690780000    -0.0988950000
| 16>  C        4.4941530000     0.8985550000    -0.0634170000
| 17>  C        4.9327080000     2.2810750000    -0.0937250000
| 18>  C        5.3347830000     3.4104840000    -0.1163050000
| 19>  H        0.6262770000    -1.0429210000     0.1122580000
| 20>  H        0.7740020000     0.6455510000    -0.0056650000
| 21>  H        2.6978110000    -2.2484780000    -0.0051560000
| 22>  H        4.8946140000     0.3426850000    -0.9159180000
| 23>  H        4.8512280000     0.3957050000     0.8396640000
| 24>  H        5.6861550000     4.4149470000    -0.1383210000
| 25> *
| 26>
| 27>                          ****END OF INPUT****
 Total Charge           Charge          ....    0
 Multiplicity           Mult            ....    1
 Number of Electrons    NEL             ....   52
 Basis Dimension        Dim             ....  128

MULLIKEN ATOMIC CHARGES
-----------------------
   0 N :   -0.075631
   1 C :   -0.008882
   2 N :   -0.168456
   3 O :   -0.270359
   4 C :    0.242794
   5 C :    0.327139
   6 C :   -0.458963
   7 H :    0.114349
   8 H :    0.122032
   9 H :    0.077394
  10 H :    0.047056
  11 H :    0.045992
  12 H :    0.005536
Sum of atomic charges:    0.0000000

LOEWDIN ATOMIC CHARGES
----------------------
   0 N :   -0.023328
   1 C :    0.027781
   2 N :   -0.213774
   3 O :   -0.078934
   4 C :    0.071673
   5 C :   -0.029483
   6 C :   -0.066821
   7 H :    0.071343
   8 H :    0.074343
   9 H :    0.047323
  10 H :    0.042289
  11 H :    0.041304
  12 H :    0.036284

  Mayer bond orders larger than 0.1
B(  0-N ,  1-C ) :   1.1980 B(  0-N ,  7-H ) :   0.9552 B(  0-N ,  8-H ) :   0.9353
B(  1-C ,  2-N ) :   1.8384 B(  1-C ,  3-O ) :   1.1564 B(  2-N ,  9-H ) :   0.9241
B(  3-O ,  4-C ) :   0.9522 B(  4-C ,  5-C ) :   0.9755 B(  4-C , 10-H ) :   0.9208
B(  4-C , 11-H ) :   0.9220 B(  5-C ,  6-C ) :   2.3914 B(  6-C , 12-H ) :   1.0902

FINAL SINGLE POINT ENERGY      -340.024868610789

DIPOLE MOMENT
-------------
                                X             Y             Z
Electronic contribution:      0.21337       1.50443      -0.13798
Nuclear contribution   :     -1.11241      -1.56334       0.39547
                        -----------------------------------------
Total Dipole Moment    :     -0.89904      -0.05891       0.25749
                        -----------------------------------------
Magnitude (a.u.)       :      0.93704
Magnitude (Debye)      :      2.38177

                             ****ORCA TERMINATED NORMALLY****
TOTAL RUN TIME: 0 days 0 hours 0 minutes 6 seconds 84 msec
