                         Program Version 3.0.3 - RELEASE   -
|  1> ! RI PBE def2-SVP def2-SVP/J NBO PAL2
|  2> % maxcore 2000
|  3> % output
|  4>     # printlevel mini
|  5>     print[ P_Basis ] 0
|  6>     print[ P_SCFInfo ] 1
|  7>     print[ P_SCFIterInfo ] 1
|  8>     print[ P_OrbEn ] 0
|  9>     print[ P_Cartesian ] 0
| 10> end
| 11> *xyz 0 1
| 12>  N        1.0772860000     0.5890180000     0.2326240000
| 13>  C        2.3772210000     0.1989290000     0.1053240000
| 14>  O        3.0383600000    -0.1492710000     1.0625950000
| 15>  C        2.9777400000     0.2920700000    -1.2521230000
| 16>  C        2.2062190000     0.4536550000    -2.5403890000
| 17>  C        2.9589460000     1.6053390000    -2.0050840000
| 18>  O        4.0858340000     1.9952880000    -2.7094360000
| 19>  H        0.6587250000     0.4631630000     1.1385570000
| 20>  H        0.4655930000     0.6385710000    -0.5608880000
| 21>  H        3.9082810000    -0.2560680000    -1.3231190000
| 22>  H        1.1230970000     0.4808230000    -2.5265180000
| 23>  H        2.6303550000    -0.0403010000    -3.4052290000
| 24>  H        2.3877790000     2.4107370000    -1.5474880000
| 25>  H        4.7318650000     2.3377460000    -2.0848370000
| 26> *
| 27>
| 28>                          ****END OF INPUT****
 Total Charge           Charge          ....    0
 Multiplicity           Mult            ....    1
 Number of Electrons    NEL             ....   54
 Basis Dimension        Dim             ....  133

MULLIKEN ATOMIC CHARGES
-----------------------
   0 N :   -0.074695
   1 C :    0.057265
   2 O :   -0.201416
   3 C :   -0.140551
   4 C :    0.010041
   5 C :    0.058157
   6 O :   -0.226402
   7 H :    0.116783
   8 H :    0.100597
   9 H :    0.034416
  10 H :    0.034507
  11 H :    0.043756
  12 H :    0.021049
  13 H :    0.166494
Sum of atomic charges:    0.0000000

LOEWDIN ATOMIC CHARGES
----------------------
   0 N :    0.000416
   1 C :    0.023912
   2 O :   -0.194348
   3 C :   -0.081592
   4 C :   -0.043555
   5 C :    0.047046
   6 O :   -0.087305
   7 H :    0.072954
   8 H :    0.063843
   9 H :    0.042651
  10 H :    0.023884
  11 H :    0.040974
  12 H :    0.009859
  13 H :    0.081261

  Mayer bond orders larger than 0.1
B(  0-N ,  1-C ) :   1.2215 B(  0-N ,  7-H ) :   0.9379 B(  0-N ,  8-H ) :   0.9404
B(  1-C ,  2-O ) :   2.1124 B(  1-C ,  3-C ) :   0.9734 B(  3-C ,  4-C ) :   0.9487
B(  3-C ,  5-C ) :   0.8782 B(  3-C ,  9-H ) :   0.9299 B(  4-C ,  5-C ) :   1.0013
B(  4-C , 10-H ) :   0.9364 B(  4-C , 11-H ) :   0.9200 B(  5-C ,  6-O ) :   1.1570
B(  5-C , 12-H ) :   0.9442 B(  6-O , 13-H ) :   0.9790

FINAL SINGLE POINT ENERGY      -361.129955043127

DIPOLE MOMENT
-------------
                                X             Y             Z
Electronic contribution:      1.80353      -0.38188       2.58500
Nuclear contribution   :     -2.69312       0.82744      -3.04417
                        -----------------------------------------
Total Dipole Moment    :     -0.88958       0.44556      -0.45917
                        -----------------------------------------
Magnitude (a.u.)       :      1.09577
Magnitude (Debye)      :      2.78524

                             ****ORCA TERMINATED NORMALLY****
TOTAL RUN TIME: 0 days 0 hours 0 minutes 6 seconds 429 msec
