                         Program Version 3.0.3 - RELEASE   -
|  1> ! RI PBE def2-SVP def2-SVP/J NBO PAL2
|  2> % maxcore 2000
|  3> % output
|  4>     # printlevel mini
|  5>     print[ P_Basis ] 0
|  6>     print[ P_SCFInfo ] 1
|  7>     print[ P_SCFIterInfo ] 1
|  8>     print[ P_OrbEn ] 0
|  9>     print[ P_Cartesian ] 0
| 10> end
| 11> *xyz 0 1
| 12>  N        2.8671090000     0.6727910000    -1.0619780000
| 13>  C        2.1649650000     0.2114510000     0.0034670000
| 14>  O        0.9654860000     0.0282010000    -0.0450330000
| 15>  C        2.9656650000    -0.0605310000     1.2522610000
| 16>  C        2.4376150000     0.5646040000     2.5637100000
| 17>  C        2.7667370000    -0.7523830000     3.2870610000
| 18>  C        2.7699050000    -1.4441300000     1.9132000000
| 19>  H        2.3734730000     0.8676210000    -1.9160490000
| 20>  H        3.8572610000     0.8237060000    -1.0212970000
| 21>  H        4.0273310000     0.1609560000     1.1106530000
| 22>  H        1.3599360000     0.7169550000     2.4828050000
| 23>  H        2.9114040000     1.4842820000     2.9100030000
| 24>  H        2.0603140000    -1.1118900000     4.0363270000
| 25>  H        3.7650480000    -0.7307950000     3.7303390000
| 26>  H        1.7811710000    -1.8294930000     1.6581550000
| 27>  H        3.5222810000    -2.2086460000     1.7140870000
| 28> *
| 29>
| 30>                          ****END OF INPUT****
 Total Charge           Charge          ....    0
 Multiplicity           Mult            ....    1
 Number of Electrons    NEL             ....   54
 Basis Dimension        Dim             ....  143

MULLIKEN ATOMIC CHARGES
-----------------------
   0 N :   -0.044417
   1 C :    0.049888
   2 O :   -0.205539
   3 C :   -0.217429
   4 C :    0.070579
   5 C :   -0.027560
   6 C :    0.068038
   7 H :    0.113057
   8 H :    0.106688
   9 H :   -0.020072
  10 H :    0.025464
  11 H :    0.010801
  12 H :    0.016099
  13 H :    0.013831
  14 H :    0.023914
  15 H :    0.016659
Sum of atomic charges:   -0.0000000

LOEWDIN ATOMIC CHARGES
----------------------
   0 N :    0.015819
   1 C :    0.025016
   2 O :   -0.196000
   3 C :   -0.066493
   4 C :   -0.015457
   5 C :   -0.036127
   6 C :   -0.015921
   7 H :    0.071426
   8 H :    0.068923
   9 H :    0.016673
  10 H :    0.030376
  11 H :    0.015248
  12 H :    0.018061
  13 H :    0.022263
  14 H :    0.029823
  15 H :    0.016370

  Mayer bond orders larger than 0.1
B(  0-N ,  1-C ) :   1.2598 B(  0-N ,  7-H ) :   0.9338 B(  0-N ,  8-H ) :   0.9428
B(  1-C ,  2-O ) :   2.1140 B(  1-C ,  3-C ) :   0.9070 B(  3-C ,  4-C ) :   1.0773
B(  3-C ,  6-C ) :   1.0722 B(  3-C ,  9-H ) :   0.9008 B(  4-C ,  5-C ) :   1.1252
B(  4-C , 10-H ) :   0.9123 B(  4-C , 11-H ) :   0.9365 B(  5-C ,  6-C ) :   1.1246
B(  5-C , 12-H ) :   0.9338 B(  5-C , 13-H ) :   0.9332 B(  6-C , 14-H ) :   0.9129
B(  6-C , 15-H ) :   0.9374

FINAL SINGLE POINT ENERGY      -325.277528479077

DIPOLE MOMENT
-------------
                                X             Y             Z
Electronic contribution:     -2.42922       1.19395      -4.91914
Nuclear contribution   :      3.70727      -0.87733       4.60579
                        -----------------------------------------
Total Dipole Moment    :      1.27805       0.31662      -0.31335
                        -----------------------------------------
Magnitude (a.u.)       :      1.35346
Magnitude (Debye)      :      3.44022

                             ****ORCA TERMINATED NORMALLY****
TOTAL RUN TIME: 0 days 0 hours 0 minutes 7 seconds 655 msec
