                         Program Version 3.0.3 - RELEASE   -
|  1> ! RI PBE def2-SVP def2-SVP/J NBO PAL2
|  2> % maxcore 2000
|  3> % output
|  4>     # printlevel mini
|  5>     print[ P_Basis ] 0
|  6>     print[ P_SCFInfo ] 1
|  7>     print[ P_SCFIterInfo ] 1
|  8>     print[ P_OrbEn ] 0
|  9>     print[ P_Cartesian ] 0
| 10> end
| 11> *xyz 0 1
| 12>  N        2.3681980000     1.1995940000     0.3662720000
| 13>  C        2.6056870000    -0.1088500000     0.1116730000
| 14>  O        2.3805220000    -0.9866980000     0.9196740000
| 15>  C        3.1891080000    -0.3996480000    -1.2622260000
| 16>  C        4.7231250000    -0.2071310000    -1.3301480000
| 17>  C        4.8036010000    -1.7380280000    -1.2222200000
| 18>  N        3.3634440000    -1.8224540000    -1.5336670000
| 19>  H        1.9838320000     1.4594350000     1.2578830000
| 20>  H        2.5210260000     1.9096310000    -0.3259610000
| 21>  H        2.6030380000     0.1377050000    -2.0184180000
| 22>  H        5.1812350000     0.3768050000    -0.5322630000
| 23>  H        5.0510200000     0.1757010000    -2.2961640000
| 24>  H        5.0574710000    -2.0737800000    -0.2114270000
| 25>  H        5.4483970000    -2.2495150000    -1.9408860000
| 26>  H        2.8367960000    -2.3945670000    -0.8815110000
| 27> *
| 28>
| 29>                          ****END OF INPUT****
 Total Charge           Charge          ....    0
 Multiplicity           Mult            ....    1
 Number of Electrons    NEL             ....   54
 Basis Dimension        Dim             ....  138

MULLIKEN ATOMIC CHARGES
-----------------------
   0 N :   -0.043956
   1 C :    0.030352
   2 O :   -0.204772
   3 C :   -0.094235
   4 C :   -0.006615
   5 C :    0.120668
   6 N :   -0.212230
   7 H :    0.116895
   8 H :    0.110259
   9 H :    0.016275
  10 H :    0.022770
  11 H :    0.021555
  12 H :    0.010879
  13 H :    0.014223
  14 H :    0.097934
Sum of atomic charges:   -0.0000000

LOEWDIN ATOMIC CHARGES
----------------------
   0 N :    0.014394
   1 C :    0.016110
   2 O :   -0.189466
   3 C :   -0.023172
   4 C :   -0.030458
   5 C :    0.031780
   6 N :   -0.094376
   7 H :    0.073955
   8 H :    0.072773
   9 H :    0.015207
  10 H :    0.020659
  11 H :    0.027698
  12 H :    0.010722
  13 H :    0.011149
  14 H :    0.043024

  Mayer bond orders larger than 0.1
B(  0-N ,  1-C ) :   1.2566 B(  0-N ,  7-H ) :   0.9328 B(  0-N ,  8-H ) :   0.9423
B(  1-C ,  2-O ) :   2.1186 B(  1-C ,  3-C ) :   0.8583 B(  3-C ,  4-C ) :   1.0828
B(  3-C ,  6-N ) :   1.1571 B(  3-C ,  9-H ) :   0.9032 B(  4-C ,  5-C ) :   1.1173
B(  4-C , 10-H ) :   0.9352 B(  4-C , 11-H ) :   0.9236 B(  5-C ,  6-N ) :   1.0641
B(  5-C , 12-H ) :   0.9300 B(  5-C , 13-H ) :   0.9384 B(  6-N , 14-H ) :   0.9353

FINAL SINGLE POINT ENERGY      -341.288546960120

DIPOLE MOMENT
-------------
                                X             Y             Z
Electronic contribution:     -3.57198      -0.38302       2.39599
Nuclear contribution   :      3.77965       1.74988      -2.51639
                        -----------------------------------------
Total Dipole Moment    :      0.20767       1.36686      -0.12039
                        -----------------------------------------
Magnitude (a.u.)       :      1.38778
Magnitude (Debye)      :      3.52746

                             ****ORCA TERMINATED NORMALLY****
TOTAL RUN TIME: 0 days 0 hours 0 minutes 7 seconds 313 msec
