                         Program Version 3.0.3 - RELEASE   -
|  1> ! RI PBE def2-SVP def2-SVP/J NBO PAL2
|  2> % maxcore 2000
|  3> % output
|  4>     # printlevel mini
|  5>     print[ P_Basis ] 0
|  6>     print[ P_SCFInfo ] 1
|  7>     print[ P_SCFIterInfo ] 1
|  8>     print[ P_OrbEn ] 0
|  9>     print[ P_Cartesian ] 0
| 10> end
| 11> *xyz 0 1
| 12>  N        2.4189660000     0.0328270000    -0.7594860000
| 13>  C        2.4142620000     1.0421740000     0.1315040000
| 14>  O        1.8521820000     2.1067250000    -0.0226950000
| 15>  C        3.1788350000     0.7524830000     1.4069340000
| 16>  C        2.3214310000     0.5099570000     2.6563390000
| 17>  C        3.0010650000    -0.8609850000     2.6795370000
| 18>  O        3.7407570000    -0.5678850000     1.4789080000
| 19>  H        1.9584340000     0.1529450000    -1.6441830000
| 20>  H        2.9300940000    -0.8071970000    -0.5479710000
| 21>  H        3.9445700000     1.5272630000     1.5158840000
| 22>  H        1.2487330000     0.5034770000     2.4709280000
| 23>  H        2.5387620000     1.1613960000     3.4999210000
| 24>  H        2.3460830000    -1.7270040000     2.5489440000
| 25>  H        3.6723270000    -1.0403760000     3.5238580000
| 26> *
| 27>
| 28>                          ****END OF INPUT****
 Total Charge           Charge          ....    0
 Multiplicity           Mult            ....    1
 Number of Electrons    NEL             ....   54
 Basis Dimension        Dim             ....  133

MULLIKEN ATOMIC CHARGES
-----------------------
   0 N :   -0.041571
   1 C :   -0.003359
   2 O :   -0.210055
   3 C :    0.080481
   4 C :   -0.052123
   5 C :    0.200993
   6 O :   -0.365666
   7 H :    0.117750
   8 H :    0.116511
   9 H :    0.035673
  10 H :    0.042179
  11 H :    0.038638
  12 H :    0.019746
  13 H :    0.020801
Sum of atomic charges:   -0.0000000

LOEWDIN ATOMIC CHARGES
----------------------
   0 N :    0.023999
   1 C :    0.001099
   2 O :   -0.196706
   3 C :    0.044960
   4 C :   -0.039574
   5 C :    0.089016
   6 O :   -0.184776
   7 H :    0.073439
   8 H :    0.067839
   9 H :    0.028670
  10 H :    0.034344
  11 H :    0.032364
  12 H :    0.011488
  13 H :    0.013840

  Mayer bond orders larger than 0.1
B(  0-N ,  1-C ) :   1.3009 B(  0-N ,  2-O ) :   0.1047 B(  0-N ,  7-H ) :   0.9393
B(  0-N ,  8-H ) :   0.9147 B(  1-C ,  2-O ) :   2.1012 B(  1-C ,  3-C ) :   0.8982
B(  3-C ,  4-C ) :   1.0967 B(  3-C ,  6-O ) :   1.0322 B(  3-C ,  9-H ) :   0.8987
B(  4-C ,  5-C ) :   1.1114 B(  4-C , 10-H ) :   0.9330 B(  4-C , 11-H ) :   0.9368
B(  5-C ,  6-O ) :   1.0051 B(  5-C , 12-H ) :   0.9420 B(  5-C , 13-H ) :   0.9397

FINAL SINGLE POINT ENERGY      -361.130564769103

DIPOLE MOMENT
-------------
                                X             Y             Z
Electronic contribution:      0.33940       1.90556      -3.42827
Nuclear contribution   :     -0.26156      -2.94730       3.71522
                        -----------------------------------------
Total Dipole Moment    :      0.07784      -1.04174       0.28695
                        -----------------------------------------
Magnitude (a.u.)       :      1.08334
Magnitude (Debye)      :      2.75364

                             ****ORCA TERMINATED NORMALLY****
TOTAL RUN TIME: 0 days 0 hours 0 minutes 6 seconds 228 msec
