                         Program Version 3.0.3 - RELEASE   -
|  1> ! RI PBE def2-SVP def2-SVP/J NBO PAL2
|  2> % maxcore 2000
|  3> % output
|  4>     # printlevel mini
|  5>     print[ P_Basis ] 0
|  6>     print[ P_SCFInfo ] 1
|  7>     print[ P_SCFIterInfo ] 1
|  8>     print[ P_OrbEn ] 0
|  9>     print[ P_Cartesian ] 0
| 10> end
| 11> *xyz 0 1
| 12>  N        2.0969750000     1.2717460000    -0.4136920000
| 13>  C        2.5775990000     0.1625880000     0.1994440000
| 14>  O        2.4659550000    -0.0164210000     1.3955160000
| 15>  C        3.2583690000    -0.8369130000    -0.6993490000
| 16>  C        4.6400360000    -1.3452050000    -0.2408760000
| 17>  N        4.2288010000    -2.7157380000    -0.5832780000
| 18>  C        2.8158070000    -2.3067550000    -0.5534530000
| 19>  H        1.6336000000     1.9675610000     0.1449200000
| 20>  H        2.1897200000     1.4166530000    -1.4013640000
| 21>  H        3.2702620000    -0.5199910000    -1.7437140000
| 22>  H        4.7722750000    -1.1664590000     0.8319070000
| 23>  H        5.5104040000    -0.9765140000    -0.7895600000
| 24>  H        4.4851390000    -3.4222860000     0.0941990000
| 25>  H        2.3203470000    -2.4588840000     0.4117850000
| 26>  H        2.2010110000    -2.7209020000    -1.3565950000
| 27> *
| 28>
| 29>                          ****END OF INPUT****
 Total Charge           Charge          ....    0
 Multiplicity           Mult            ....    1
 Number of Electrons    NEL             ....   54
 Basis Dimension        Dim             ....  138

MULLIKEN ATOMIC CHARGES
-----------------------
   0 N :   -0.042947
   1 C :    0.044445
   2 O :   -0.204608
   3 C :   -0.260923
   4 C :    0.197614
   5 N :   -0.284951
   6 C :    0.189880
   7 H :    0.115527
   8 H :    0.107774
   9 H :   -0.005448
  10 H :    0.011850
  11 H :    0.009031
  12 H :    0.095376
  13 H :    0.014153
  14 H :    0.013227
Sum of atomic charges:   -0.0000000

LOEWDIN ATOMIC CHARGES
----------------------
   0 N :    0.018567
   1 C :    0.023649
   2 O :   -0.195385
   3 C :   -0.072630
   4 C :    0.045049
   5 N :   -0.116860
   6 C :    0.044087
   7 H :    0.072866
   8 H :    0.069982
   9 H :    0.021755
  10 H :    0.011144
  11 H :    0.009463
  12 H :    0.046908
  13 H :    0.011253
  14 H :    0.010153

  Mayer bond orders larger than 0.1
B(  0-N ,  1-C ) :   1.2580 B(  0-N ,  7-H ) :   0.9349 B(  0-N ,  8-H ) :   0.9427
B(  1-C ,  2-O ) :   2.1072 B(  1-C ,  3-C ) :   0.9053 B(  3-C ,  4-C ) :   1.0654
B(  3-C ,  6-C ) :   1.0593 B(  3-C ,  9-H ) :   0.8948 B(  4-C ,  5-N ) :   1.0534
B(  4-C , 10-H ) :   0.9218 B(  4-C , 11-H ) :   0.9355 B(  5-N ,  6-C ) :   1.0527
B(  5-N , 12-H ) :   0.9449 B(  6-C , 13-H ) :   0.9232 B(  6-C , 14-H ) :   0.9372

FINAL SINGLE POINT ENERGY      -341.285410114075

DIPOLE MOMENT
-------------
                                X             Y             Z
Electronic contribution:     -1.38009       2.00371       1.90940
Nuclear contribution   :      1.18101      -1.35435      -2.72876
                        -----------------------------------------
Total Dipole Moment    :     -0.19908       0.64937      -0.81936
                        -----------------------------------------
Magnitude (a.u.)       :      1.06427
Magnitude (Debye)      :      2.70515

                             ****ORCA TERMINATED NORMALLY****
TOTAL RUN TIME: 0 days 0 hours 0 minutes 7 seconds 258 msec
