                         Program Version 3.0.3 - RELEASE   -
|  1> ! RI PBE def2-SVP def2-SVP/J NBO PAL2
|  2> % maxcore 2000
|  3> % output
|  4>     # printlevel mini
|  5>     print[ P_Basis ] 0
|  6>     print[ P_SCFInfo ] 1
|  7>     print[ P_SCFIterInfo ] 1
|  8>     print[ P_OrbEn ] 0
|  9>     print[ P_Cartesian ] 0
| 10> end
| 11> *xyz 0 1
| 12>  N        1.3948490000    -0.6341050000    -0.5600750000
| 13>  C        2.1730340000     0.2109400000     0.1596120000
| 14>  O        2.2368120000     0.1653750000     1.3701540000
| 15>  C        2.9589790000     1.2168470000    -0.6436620000
| 16>  C        2.8939640000     2.6730380000    -0.1555190000
| 17>  O        4.3198630000     2.7644400000    -0.0726880000
| 18>  C        4.4475950000     1.3549700000    -0.2860330000
| 19>  H        0.8518850000    -1.3226930000    -0.0678700000
| 20>  H        1.3444120000    -0.5937700000    -1.5605010000
| 21>  H        2.7874780000     1.1209630000    -1.7167130000
| 22>  H        2.4226430000     2.7713950000     0.8271620000
| 23>  H        2.4734180000     3.4008570000    -0.8544150000
| 24>  H        4.7143870000     0.8271000000     0.6346460000
| 25>  H        5.1613020000     1.1205430000    -1.0801980000
| 26> *
| 27>
| 28>                          ****END OF INPUT****
 Total Charge           Charge          ....    0
 Multiplicity           Mult            ....    1
 Number of Electrons    NEL             ....   54
 Basis Dimension        Dim             ....  133

MULLIKEN ATOMIC CHARGES
-----------------------
   0 N :   -0.041748
   1 C :    0.046276
   2 O :   -0.194820
   3 C :   -0.284353
   4 C :    0.270181
   5 O :   -0.362620
   6 C :    0.266160
   7 H :    0.117891
   8 H :    0.108746
   9 H :   -0.002095
  10 H :    0.020744
  11 H :    0.015995
  12 H :    0.023059
  13 H :    0.016583
Sum of atomic charges:    0.0000000

LOEWDIN ATOMIC CHARGES
----------------------
   0 N :    0.019179
   1 C :    0.023232
   2 O :   -0.188942
   3 C :   -0.091700
   4 C :    0.101192
   5 O :   -0.182335
   6 C :    0.100514
   7 H :    0.074434
   8 H :    0.070061
   9 H :    0.022372
  10 H :    0.014349
  11 H :    0.011359
  12 H :    0.014830
  13 H :    0.011455

  Mayer bond orders larger than 0.1
B(  0-N ,  1-C ) :   1.2516 B(  0-N ,  7-H ) :   0.9350 B(  0-N ,  8-H ) :   0.9416
B(  1-C ,  2-O ) :   2.1280 B(  1-C ,  3-C ) :   0.8968 B(  3-C ,  4-C ) :   1.0825
B(  3-C ,  6-C ) :   1.0847 B(  3-C ,  9-H ) :   0.9006 B(  4-C ,  5-O ) :   1.0320
B(  4-C , 10-H ) :   0.9267 B(  4-C , 11-H ) :   0.9348 B(  5-O ,  6-C ) :   1.0332
B(  6-C , 12-H ) :   0.9269 B(  6-C , 13-H ) :   0.9345

FINAL SINGLE POINT ENERGY      -361.123125995870

DIPOLE MOMENT
-------------
                                X             Y             Z
Electronic contribution:     -0.21628      -0.45339       2.00104
Nuclear contribution   :     -0.57106      -0.33085      -3.43171
                        -----------------------------------------
Total Dipole Moment    :     -0.78734      -0.78424      -1.43066
                        -----------------------------------------
Magnitude (a.u.)       :      1.81156
Magnitude (Debye)      :      4.60461

                             ****ORCA TERMINATED NORMALLY****
TOTAL RUN TIME: 0 days 0 hours 0 minutes 6 seconds 192 msec
