                         Program Version 3.0.3 - RELEASE   -
|  1> ! RI PBE def2-SVP def2-SVP/J NBO PAL2
|  2> % maxcore 2000
|  3> % output
|  4>     # printlevel mini
|  5>     print[ P_Basis ] 0
|  6>     print[ P_SCFInfo ] 1
|  7>     print[ P_SCFIterInfo ] 1
|  8>     print[ P_OrbEn ] 0
|  9>     print[ P_Cartesian ] 0
| 10> end
| 11> *xyz 0 1
| 12>  N        2.9363130000    -1.6291380000     0.1956850000
| 13>  C        2.3690970000    -0.4067310000     0.0619500000
| 14>  O        1.2054600000    -0.2557060000    -0.2461790000
| 15>  C        3.2763310000     0.7794940000     0.3432870000
| 16>  C        4.7585400000     0.5364430000     0.2862590000
| 17>  C        5.6861070000     1.4242460000     1.0531750000
| 18>  C        5.4930450000     0.0041490000     1.4880580000
| 19>  H        2.3593540000    -2.4409730000     0.0619900000
| 20>  H        3.8907920000    -1.7316850000     0.4887070000
| 21>  H        2.9977610000     1.1488630000     1.3371350000
| 22>  H        2.9777060000     1.5596970000    -0.3610590000
| 23>  H        5.1271660000     0.1997130000    -0.6782400000
| 24>  H        5.2433630000     2.2022740000     1.6635820000
| 25>  H        6.6307920000     1.6947660000     0.5990120000
| 26>  H        4.9197540000    -0.1706100000     2.3916330000
| 27>  H        6.3103290000    -0.6903820000     1.3340940000
| 28> *
| 29>
| 30>                          ****END OF INPUT****
 Total Charge           Charge          ....    0
 Multiplicity           Mult            ....    1
 Number of Electrons    NEL             ....   54
 Basis Dimension        Dim             ....  143

MULLIKEN ATOMIC CHARGES
-----------------------
   0 N :   -0.049905
   1 C :   -0.046558
   2 O :   -0.208391
   3 C :    0.137289
   4 C :   -0.226396
   5 C :   -0.010221
   6 C :   -0.050577
   7 H :    0.113002
   8 H :    0.109353
   9 H :    0.021553
  10 H :    0.035471
  11 H :    0.029002
  12 H :    0.035652
  13 H :    0.034054
  14 H :    0.036287
  15 H :    0.040383
Sum of atomic charges:   -0.0000000

LOEWDIN ATOMIC CHARGES
----------------------
   0 N :    0.013489
   1 C :    0.023037
   2 O :   -0.198539
   3 C :   -0.057994
   4 C :   -0.056518
   5 C :   -0.036099
   6 C :   -0.057949
   7 H :    0.071846
   8 H :    0.068118
   9 H :    0.045802
  10 H :    0.046156
  11 H :    0.027844
  12 H :    0.028640
  13 H :    0.029104
  14 H :    0.025461
  15 H :    0.027603

  Mayer bond orders larger than 0.1
B(  0-N ,  1-C ) :   1.2680 B(  0-N ,  7-H ) :   0.9377 B(  0-N ,  8-H ) :   0.9275
B(  1-C ,  2-O ) :   2.1120 B(  1-C ,  3-C ) :   0.9528 B(  3-C ,  4-C ) :   1.0467
B(  3-C ,  9-H ) :   0.8971 B(  3-C , 10-H ) :   0.9151 B(  4-C ,  5-C ) :   0.9832
B(  4-C ,  6-C ) :   0.9636 B(  4-C , 11-H ) :   0.9527 B(  5-C ,  6-C ) :   1.0485
B(  5-C , 12-H ) :   0.9484 B(  5-C , 13-H ) :   0.9444 B(  6-C , 14-H ) :   0.9488
B(  6-C , 15-H ) :   0.9470

FINAL SINGLE POINT ENERGY      -325.273024092146

DIPOLE MOMENT
-------------
                                X             Y             Z
Electronic contribution:     -5.87789      -1.85420      -2.22085
Nuclear contribution   :      7.21658       1.39731       2.61035
                        -----------------------------------------
Total Dipole Moment    :      1.33869      -0.45689       0.38950
                        -----------------------------------------
Magnitude (a.u.)       :      1.46716
Magnitude (Debye)      :      3.72922

                             ****ORCA TERMINATED NORMALLY****
TOTAL RUN TIME: 0 days 0 hours 0 minutes 7 seconds 653 msec
