                         Program Version 3.0.3 - RELEASE   -
|  1> ! RI PBE def2-SVP def2-SVP/J NBO PAL2
|  2> % maxcore 2000
|  3> % output
|  4>     # printlevel mini
|  5>     print[ P_Basis ] 0
|  6>     print[ P_SCFInfo ] 1
|  7>     print[ P_SCFIterInfo ] 1
|  8>     print[ P_OrbEn ] 0
|  9>     print[ P_Cartesian ] 0
| 10> end
| 11> *xyz 0 1
| 12>  N        2.3911360000    -1.5794220000     0.2643940000
| 13>  C        2.4436870000    -0.4430700000    -0.4673790000
| 14>  O        1.7752390000    -0.2618840000    -1.4627800000
| 15>  C        3.3919200000     0.6165790000     0.0759830000
| 16>  C        4.7505020000     0.0961290000     0.4422520000
| 17>  C        5.4672750000     0.5664460000     1.6225480000
| 18>  O        4.8309290000    -0.7025300000     1.6222950000
| 19>  H        1.7823220000    -2.3179330000    -0.0422250000
| 20>  H        2.9794140000    -1.7101820000     1.0699320000
| 21>  H        2.9267960000     1.0690540000     0.9579070000
| 22>  H        3.4769660000     1.3868270000    -0.6917780000
| 23>  H        5.3419080000    -0.2976380000    -0.3829600000
| 24>  H        5.0045730000     1.3172400000     2.2585370000
| 25>  H        6.5532210000     0.5350850000     1.6441950000
| 26> *
| 27>
| 28>                          ****END OF INPUT****
 Total Charge           Charge          ....    0
 Multiplicity           Mult            ....    1
 Number of Electrons    NEL             ....   54
 Basis Dimension        Dim             ....  133

MULLIKEN ATOMIC CHARGES
-----------------------
   0 N :   -0.048395
   1 C :   -0.069014
   2 O :   -0.192634
   3 C :    0.134769
   4 C :   -0.048498
   5 C :    0.140613
   6 O :   -0.308224
   7 H :    0.116604
   8 H :    0.117637
   9 H :    0.023463
  10 H :    0.030532
  11 H :    0.030385
  12 H :    0.031849
  13 H :    0.040911
Sum of atomic charges:    0.0000000

LOEWDIN ATOMIC CHARGES
----------------------
   0 N :    0.016464
   1 C :    0.018855
   2 O :   -0.191326
   3 C :   -0.072680
   4 C :    0.041095
   5 C :    0.061607
   6 O :   -0.166815
   7 H :    0.073331
   8 H :    0.065301
   9 H :    0.045438
  10 H :    0.048461
  11 H :    0.022492
  12 H :    0.017136
  13 H :    0.020643

  Mayer bond orders larger than 0.1
B(  0-N ,  1-C ) :   1.2717 B(  0-N ,  7-H ) :   0.9388 B(  0-N ,  8-H ) :   0.9221
B(  1-C ,  2-O ) :   2.1334 B(  1-C ,  3-C ) :   0.9592 B(  3-C ,  4-C ) :   1.0442
B(  3-C ,  9-H ) :   0.8932 B(  3-C , 10-H ) :   0.9041 B(  4-C ,  5-C ) :   1.0695
B(  4-C ,  6-O ) :   0.9144 B(  4-C , 11-H ) :   0.9432 B(  5-C ,  6-O ) :   0.9997
B(  5-C , 12-H ) :   0.9330 B(  5-C , 13-H ) :   0.9378

FINAL SINGLE POINT ENERGY      -361.128582784320

DIPOLE MOMENT
-------------
                                X             Y             Z
Electronic contribution:     -2.13277      -1.72935      -1.61690
Nuclear contribution   :      2.91335       1.75821       2.48197
                        -----------------------------------------
Total Dipole Moment    :      0.78058       0.02886       0.86507
                        -----------------------------------------
Magnitude (a.u.)       :      1.16554
Magnitude (Debye)      :      2.96257

                             ****ORCA TERMINATED NORMALLY****
TOTAL RUN TIME: 0 days 0 hours 0 minutes 6 seconds 585 msec
