                         Program Version 3.0.3 - RELEASE   -
|  1> ! RI PBE def2-SVP def2-SVP/J NBO PAL2
|  2> % maxcore 2000
|  3> % output
|  4>     # printlevel mini
|  5>     print[ P_Basis ] 0
|  6>     print[ P_SCFInfo ] 1
|  7>     print[ P_SCFIterInfo ] 1
|  8>     print[ P_OrbEn ] 0
|  9>     print[ P_Cartesian ] 0
| 10> end
| 11> *xyz 0 1
| 12>  N        1.1861620000     0.3238620000    -0.4479820000
| 13>  C        2.4488030000     0.2032940000     0.0418780000
| 14>  O        3.1144660000     1.1712120000     0.3552910000
| 15>  C        2.9351230000    -1.1919760000     0.1567700000
| 16>  C        4.1603640000    -1.4471010000     0.6239390000
| 17>  C        4.7221560000    -2.7684300000     0.7725920000
| 18>  C        5.9497290000    -2.9937210000     1.2422870000
| 19>  H        0.8000520000     1.2457990000    -0.5497920000
| 20>  H        0.6339750000    -0.4714950000    -0.7079760000
| 21>  H        2.2782360000    -2.0037900000    -0.1453580000
| 22>  H        4.7717060000    -0.5939680000     0.9104380000
| 23>  H        4.0960240000    -3.6086500000     0.4810150000
| 24>  H        6.5954790000    -2.1742900000     1.5404280000
| 25>  H        6.3448260000    -3.9972440000     1.3427600000
| 26> *
| 27>
| 28>                          ****END OF INPUT****
 Total Charge           Charge          ....    0
 Multiplicity           Mult            ....    1
 Number of Electrons    NEL             ....   52
 Basis Dimension        Dim             ....  133

MULLIKEN ATOMIC CHARGES
-----------------------
   0 N :   -0.048831
   1 C :    0.039811
   2 O :   -0.203827
   3 C :   -0.074871
   4 C :    0.040297
   5 C :   -0.005350
   6 C :   -0.014864
   7 H :    0.114602
   8 H :    0.106714
   9 H :   -0.022452
  10 H :    0.011904
  11 H :   -0.004352
  12 H :    0.031262
  13 H :    0.029956
Sum of atomic charges:   -0.0000000

LOEWDIN ATOMIC CHARGES
----------------------
   0 N :    0.014546
   1 C :    0.018700
   2 O :   -0.196869
   3 C :   -0.075032
   4 C :    0.014439
   5 C :   -0.032712
   6 C :   -0.028030
   7 H :    0.073132
   8 H :    0.069592
   9 H :    0.018404
  10 H :    0.037927
  11 H :    0.029363
  12 H :    0.028629
  13 H :    0.027913

  Mayer bond orders larger than 0.1
B(  0-N ,  1-C ) :   1.2431 B(  0-N ,  7-H ) :   0.9354 B(  0-N ,  8-H ) :   0.9418
B(  1-C ,  2-O ) :   2.0958 B(  1-C ,  3-C ) :   0.9339 B(  3-C ,  4-C ) :   1.7509
B(  3-C ,  6-C ) :   0.1365 B(  3-C ,  9-H ) :   0.9445 B(  4-C ,  5-C ) :   1.1236
B(  4-C , 10-H ) :   0.9554 B(  5-C ,  6-C ) :   1.8742 B(  5-C , 11-H ) :   0.9617
B(  6-C , 12-H ) :   0.9460 B(  6-C , 13-H ) :   0.9428

FINAL SINGLE POINT ENERGY      -324.068468200402

DIPOLE MOMENT
-------------
                                X             Y             Z
Electronic contribution:     -2.10989       4.02453      -0.60976
Nuclear contribution   :      1.27289      -4.97351       0.22877
                        -----------------------------------------
Total Dipole Moment    :     -0.83701      -0.94898      -0.38099
                        -----------------------------------------
Magnitude (a.u.)       :      1.32148
Magnitude (Debye)      :      3.35893

                             ****ORCA TERMINATED NORMALLY****
TOTAL RUN TIME: 0 days 0 hours 0 minutes 6 seconds 778 msec
