                         Program Version 3.0.3 - RELEASE   -
|  1> ! RI PBE def2-SVP def2-SVP/J NBO PAL2
|  2> % maxcore 2000
|  3> % output
|  4>     # printlevel mini
|  5>     print[ P_Basis ] 0
|  6>     print[ P_SCFInfo ] 1
|  7>     print[ P_SCFIterInfo ] 1
|  8>     print[ P_OrbEn ] 0
|  9>     print[ P_Cartesian ] 0
| 10> end
| 11> *xyz 0 1
| 12>  N        1.1256490000     0.9590170000    -0.2111500000
| 13>  C        2.3881700000     0.4639480000    -0.1515540000
| 14>  O        2.9170690000    -0.0908110000    -1.0940990000
| 15>  C        3.0631330000     0.6569390000     1.1571910000
| 16>  C        4.3091140000     0.2085630000     1.3276830000
| 17>  C        5.0493080000     0.3343430000     2.5229920000
| 18>  C        5.7087830000     0.4241130000     3.5257890000
| 19>  H        0.6140380000     0.8606000000    -1.0703860000
| 20>  H        0.6920950000     1.4168120000     0.5684890000
| 21>  H        2.5383740000     1.1602090000     1.9627930000
| 22>  H        4.7831380000    -0.2878710000     0.4833240000
| 23>  H        6.2872290000     0.5064370000     4.4156180000
| 24> *
| 25>
| 26>                          ****END OF INPUT****
 Total Charge           Charge          ....    0
 Multiplicity           Mult            ....    1
 Number of Electrons    NEL             ....   50
 Basis Dimension        Dim             ....  123

MULLIKEN ATOMIC CHARGES
-----------------------
   0 N :   -0.044963
   1 C :    0.040287
   2 O :   -0.200952
   3 C :   -0.057387
   4 C :   -0.033202
   5 C :    0.408679
   6 C :   -0.402554
   7 H :    0.119363
   8 H :    0.108989
   9 H :   -0.002047
  10 H :    0.051118
  11 H :    0.012668
Sum of atomic charges:    0.0000000

LOEWDIN ATOMIC CHARGES
----------------------
   0 N :    0.019272
   1 C :    0.019237
   2 O :   -0.190318
   3 C :   -0.049822
   4 C :   -0.001326
   5 C :   -0.016112
   6 C :   -0.047498
   7 H :    0.075745
   8 H :    0.071699
   9 H :    0.026695
  10 H :    0.053601
  11 H :    0.038828

  Mayer bond orders larger than 0.1
B(  0-N ,  1-C ) :   1.2482 B(  0-N ,  7-H ) :   0.9344 B(  0-N ,  8-H ) :   0.9408
B(  1-C ,  2-O ) :   2.0885 B(  1-C ,  3-C ) :   0.9370 B(  3-C ,  4-C ) :   1.7805
B(  3-C ,  6-C ) :   0.1325 B(  3-C ,  9-H ) :   0.9485 B(  4-C ,  5-C ) :   1.0112
B(  4-C , 10-H ) :   0.9338 B(  5-C ,  6-C ) :   2.2545 B(  6-C , 11-H ) :   1.0850

FINAL SINGLE POINT ENERGY      -322.821135306741

DIPOLE MOMENT
-------------
                                X             Y             Z
Electronic contribution:      1.10060      -0.76301      -0.86625
Nuclear contribution   :     -2.00440       1.41571       1.65797
                        -----------------------------------------
Total Dipole Moment    :     -0.90381       0.65271       0.79172
                        -----------------------------------------
Magnitude (a.u.)       :      1.36737
Magnitude (Debye)      :      3.47559

                             ****ORCA TERMINATED NORMALLY****
TOTAL RUN TIME: 0 days 0 hours 0 minutes 5 seconds 772 msec
