                         Program Version 3.0.3 - RELEASE   -
|  1> ! RI PBE def2-SVP def2-SVP/J NBO PAL2
|  2> % maxcore 2000
|  3> % output
|  4>     # printlevel mini
|  5>     print[ P_Basis ] 0
|  6>     print[ P_SCFInfo ] 1
|  7>     print[ P_SCFIterInfo ] 1
|  8>     print[ P_OrbEn ] 0
|  9>     print[ P_Cartesian ] 0
| 10> end
| 11> *xyz 0 1
| 12>  N        2.9038960000    -0.7790560000     0.5633580000
| 13>  C        2.2611990000     0.1975030000    -0.1299700000
| 14>  O        1.0842690000     0.4411440000     0.0344120000
| 15>  C        3.1232200000     0.9533150000    -1.1060640000
| 16>  C        2.5075460000     1.7442730000    -1.9830820000
| 17>  C        4.5842400000     0.8072850000    -1.0476310000
| 18>  C        5.3695010000     0.6166790000    -2.1032160000
| 19>  H        2.3425990000    -1.3704120000     1.1520390000
| 20>  H        3.8117630000    -1.1028310000     0.2809340000
| 21>  H        1.4259850000     1.8086140000    -1.9783290000
| 22>  H        3.0671890000     2.3440210000    -2.6904990000
| 23>  H        5.0367130000     0.8659010000    -0.0587910000
| 24>  H        4.9574980000     0.5167990000    -3.1018860000
| 25>  H        6.4462930000     0.5511750000    -2.0000760000
| 26> *
| 27>
| 28>                          ****END OF INPUT****
 Total Charge           Charge          ....    0
 Multiplicity           Mult            ....    1
 Number of Electrons    NEL             ....   52
 Basis Dimension        Dim             ....  133

MULLIKEN ATOMIC CHARGES
-----------------------
   0 N :   -0.056985
   1 C :    0.035952
   2 O :   -0.190578
   3 C :   -0.081587
   4 C :    0.005025
   5 C :   -0.067033
   6 C :   -0.023761
   7 H :    0.117493
   8 H :    0.112259
   9 H :    0.043072
  10 H :    0.021812
  11 H :    0.018951
  12 H :    0.029501
  13 H :    0.035879
Sum of atomic charges:   -0.0000000

LOEWDIN ATOMIC CHARGES
----------------------
   0 N :    0.015956
   1 C :    0.027374
   2 O :   -0.184128
   3 C :   -0.076400
   4 C :    0.008132
   5 C :   -0.042539
   6 C :   -0.039293
   7 H :    0.074796
   8 H :    0.069667
   9 H :    0.033874
  10 H :    0.026735
  11 H :    0.030717
  12 H :    0.026998
  13 H :    0.028110

  Mayer bond orders larger than 0.1
B(  0-N ,  1-C ) :   1.2590 B(  0-N ,  7-H ) :   0.9373 B(  0-N ,  8-H ) :   0.9300
B(  1-C ,  2-O ) :   2.1191 B(  1-C ,  3-C ) :   0.8883 B(  3-C ,  4-C ) :   1.9568
B(  3-C ,  5-C ) :   1.0305 B(  4-C ,  9-H ) :   0.9193 B(  4-C , 10-H ) :   0.9344
B(  5-C ,  6-C ) :   1.9514 B(  5-C , 11-H ) :   0.9421 B(  6-C , 12-H ) :   0.9506
B(  6-C , 13-H ) :   0.9435

FINAL SINGLE POINT ENERGY      -324.058054565359

DIPOLE MOMENT
-------------
                                X             Y             Z
Electronic contribution:     -3.92290      -0.49189       2.60067
Nuclear contribution   :      5.11840      -0.11230      -2.68266
                        -----------------------------------------
Total Dipole Moment    :      1.19550      -0.60419      -0.08199
                        -----------------------------------------
Magnitude (a.u.)       :      1.34200
Magnitude (Debye)      :      3.41110

                             ****ORCA TERMINATED NORMALLY****
TOTAL RUN TIME: 0 days 0 hours 0 minutes 6 seconds 352 msec
