                         Program Version 3.0.3 - RELEASE   -
|  1> ! RI PBE def2-SVP def2-SVP/J NBO PAL2
|  2> % maxcore 2000
|  3> % output
|  4>     # printlevel mini
|  5>     print[ P_Basis ] 0
|  6>     print[ P_SCFInfo ] 1
|  7>     print[ P_SCFIterInfo ] 1
|  8>     print[ P_OrbEn ] 0
|  9>     print[ P_Cartesian ] 0
| 10> end
| 11> *xyz 0 1
| 12>  N        1.1674710000     0.2389260000     0.1915780000
| 13>  C        2.4240920000    -0.1188080000    -0.1811790000
| 14>  O        2.9490060000     0.2659480000    -1.1997250000
| 15>  C        3.1136140000    -1.0828280000     0.7543730000
| 16>  C        2.4463980000    -2.0706760000     1.3590360000
| 17>  C        4.5193190000    -0.9246530000     0.8859730000
| 18>  C        5.7050040000    -0.7713560000     1.0051000000
| 19>  H        0.6996660000     0.9225000000    -0.3792560000
| 20>  H        0.8551250000     0.1093940000     1.1363670000
| 21>  H        1.3806380000    -2.1980470000     1.2126450000
| 22>  H        2.9606210000    -2.7925620000     1.9809430000
| 23>  H        6.7564050000    -0.6365700000     1.1009750000
| 24> *
| 25>
| 26>                          ****END OF INPUT****
 Total Charge           Charge          ....    0
 Multiplicity           Mult            ....    1
 Number of Electrons    NEL             ....   50
 Basis Dimension        Dim             ....  123

MULLIKEN ATOMIC CHARGES
-----------------------
   0 N :   -0.064424
   1 C :    0.067435
   2 O :   -0.170083
   3 C :   -0.152481
   4 C :    0.005212
   5 C :    0.426726
   6 C :   -0.425169
   7 H :    0.121475
   8 H :    0.116651
   9 H :    0.028077
  10 H :    0.037532
  11 H :    0.009050
Sum of atomic charges:    0.0000000

LOEWDIN ATOMIC CHARGES
----------------------
   0 N :    0.014914
   1 C :    0.033975
   2 O :   -0.162076
   3 C :   -0.074817
   4 C :   -0.014920
   5 C :   -0.002582
   6 C :   -0.042339
   7 H :    0.076746
   8 H :    0.072765
   9 H :    0.025460
  10 H :    0.034574
  11 H :    0.038299

  Mayer bond orders larger than 0.1
B(  0-N ,  1-C ) :   1.2381 B(  0-N ,  7-H ) :   0.9385 B(  0-N ,  8-H ) :   0.9399
B(  1-C ,  2-O ) :   2.1522 B(  1-C ,  3-C ) :   0.8730 B(  3-C ,  4-C ) :   1.8876
B(  3-C ,  5-C ) :   1.0263 B(  4-C ,  6-C ) :   0.1260 B(  4-C ,  9-H ) :   0.9339
B(  4-C , 10-H ) :   0.9403 B(  5-C ,  6-C ) :   2.2818 B(  5-C , 11-H ) :  -0.1024
B(  6-C , 11-H ) :   1.0927

FINAL SINGLE POINT ENERGY      -322.811759986292

DIPOLE MOMENT
-------------
                                X             Y             Z
Electronic contribution:      1.80171       1.43002      -1.96641
Nuclear contribution   :     -2.69309      -1.49685       3.01345
                        -----------------------------------------
Total Dipole Moment    :     -0.89138      -0.06683       1.04704
                        -----------------------------------------
Magnitude (a.u.)       :      1.37670
Magnitude (Debye)      :      3.49929

                             ****ORCA TERMINATED NORMALLY****
TOTAL RUN TIME: 0 days 0 hours 0 minutes 6 seconds 234 msec
