                         Program Version 3.0.3 - RELEASE   -
|  1> ! RI PBE def2-SVP def2-SVP/J NBO PAL2
|  2> % maxcore 2000
|  3> % output
|  4>     # printlevel mini
|  5>     print[ P_Basis ] 0
|  6>     print[ P_SCFInfo ] 1
|  7>     print[ P_SCFIterInfo ] 1
|  8>     print[ P_OrbEn ] 0
|  9>     print[ P_Cartesian ] 0
| 10> end
| 11> *xyz 0 1
| 12>  N        1.0591050000    -0.1544040000     0.1303660000
| 13>  C        2.3962680000     0.0688760000     0.0981100000
| 14>  O        2.9836170000     0.7412870000     0.9183480000
| 15>  C        3.0764570000    -0.5718900000    -1.0136940000
| 16>  C        3.6997570000    -1.0776580000    -1.9147020000
| 17>  C        4.4166450000    -1.6778910000    -2.9775720000
| 18>  C        5.7335710000    -1.5498680000    -3.1411200000
| 19>  H        0.5233480000     0.2601910000     0.8729400000
| 20>  H        0.6042650000    -0.7151210000    -0.5659810000
| 21>  H        3.8371280000    -2.2687940000    -3.6819160000
| 22>  H        6.3332530000    -0.9667310000    -2.4526990000
| 23>  H        6.2376970000    -2.0292880000    -3.9711710000
| 24> *
| 25>
| 26>                          ****END OF INPUT****
 Total Charge           Charge          ....    0
 Multiplicity           Mult            ....    1
 Number of Electrons    NEL             ....   50
 Basis Dimension        Dim             ....  123

MULLIKEN ATOMIC CHARGES
-----------------------
   0 N :   -0.056177
   1 C :    0.033870
   2 O :   -0.175789
   3 C :   -0.033695
   4 C :   -0.045016
   5 C :   -0.089744
   6 C :    0.002794
   7 H :    0.123284
   8 H :    0.116718
   9 H :    0.034862
  10 H :    0.049445
  11 H :    0.039448
Sum of atomic charges:   -0.0000000

LOEWDIN ATOMIC CHARGES
----------------------
   0 N :    0.024491
   1 C :    0.008493
   2 O :   -0.165505
   3 C :   -0.067482
   4 C :   -0.016314
   5 C :   -0.049142
   6 C :   -0.001303
   7 H :    0.076398
   8 H :    0.076852
   9 H :    0.045269
  10 H :    0.036728
  11 H :    0.031515

  Mayer bond orders larger than 0.1
B(  0-N ,  1-C ) :   1.2649 B(  0-N ,  2-O ) :   0.1044 B(  0-N ,  7-H ) :   0.9355
B(  0-N ,  8-H ) :   0.9406 B(  1-C ,  2-O ) :   2.1186 B(  1-C ,  3-C ) :   0.8390
B(  3-C ,  4-C ) :   2.5279 B(  3-C ,  6-C ) :   0.1250 B(  4-C ,  5-C ) :   1.0696
B(  5-C ,  6-C ) :   1.9039 B(  5-C ,  9-H ) :   0.9466 B(  6-C , 10-H ) :   0.9532
B(  6-C , 11-H ) :   0.9421

FINAL SINGLE POINT ENERGY      -322.819093566010

DIPOLE MOMENT
-------------
                                X             Y             Z
Electronic contribution:     -1.84944       1.91749       3.27314
Nuclear contribution   :      1.02908      -2.68972      -4.18302
                        -----------------------------------------
Total Dipole Moment    :     -0.82036      -0.77223      -0.90987
                        -----------------------------------------
Magnitude (a.u.)       :      1.44817
Magnitude (Debye)      :      3.68096

                             ****ORCA TERMINATED NORMALLY****
TOTAL RUN TIME: 0 days 0 hours 0 minutes 5 seconds 619 msec
