                         Program Version 3.0.3 - RELEASE   -
|  1> ! RI PBE def2-SVP def2-SVP/J NBO PAL2
|  2> % maxcore 2000
|  3> % output
|  4>     # printlevel mini
|  5>     print[ P_Basis ] 0
|  6>     print[ P_SCFInfo ] 1
|  7>     print[ P_SCFIterInfo ] 1
|  8>     print[ P_OrbEn ] 0
|  9>     print[ P_Cartesian ] 0
| 10> end
| 11> *xyz 0 1
| 12>  N        1.0078190000     0.0857980000    -0.0572830000
| 13>  C        2.3591180000     0.0284870000    -0.0027880000
| 14>  O        2.9796410000    -0.7230280000     0.7160670000
| 15>  C        3.0286220000     0.9620580000    -0.8953570000
| 16>  C        3.6450290000     1.7134040000    -1.6137190000
| 17>  C        4.3362520000     2.5611250000    -2.4237890000
| 18>  C        4.9463720000     3.3124890000    -3.1417830000
| 19>  H        0.4789310000    -0.5321670000     0.5338290000
| 20>  H        0.5333050000     0.7248880000    -0.6683340000
| 21>  H        5.4892110000     3.9746550000    -3.7745440000
| 22> *
| 23>
| 24>                          ****END OF INPUT****
 Total Charge           Charge          ....    0
 Multiplicity           Mult            ....    1
 Number of Electrons    NEL             ....   48
 Basis Dimension        Dim             ....  113

MULLIKEN ATOMIC CHARGES
-----------------------
   0 N :   -0.049878
   1 C :    0.033261
   2 O :   -0.163415
   3 C :   -0.048144
   4 C :   -0.005781
   5 C :    0.358512
   6 C :   -0.397157
   7 H :    0.127765
   8 H :    0.121879
   9 H :    0.022958
Sum of atomic charges:   -0.0000000

LOEWDIN ATOMIC CHARGES
----------------------
   0 N :    0.031145
   1 C :    0.008196
   2 O :   -0.153488
   3 C :   -0.028573
   4 C :   -0.027154
   5 C :   -0.028705
   6 C :   -0.005140
   7 H :    0.079470
   8 H :    0.080126
   9 H :    0.044123

  Mayer bond orders larger than 0.1
B(  0-N ,  1-C ) :   1.2760 B(  0-N ,  2-O ) :   0.1094 B(  0-N ,  7-H ) :   0.9350
B(  0-N ,  8-H ) :   0.9394 B(  1-C ,  2-O ) :   2.1183 B(  1-C ,  3-C ) :   0.8319
B(  3-C ,  4-C ) :   2.4456 B(  3-C ,  6-C ) :   0.2547 B(  4-C ,  5-C ) :   0.9500
B(  5-C ,  6-C ) :   2.1451 B(  5-C ,  9-H ) :  -0.1007 B(  6-C ,  9-H ) :   1.0896

FINAL SINGLE POINT ENERGY      -321.579288921417

DIPOLE MOMENT
-------------
                                X             Y             Z
Electronic contribution:      1.56080      -0.24149       0.23024
Nuclear contribution   :     -2.63165       0.94973      -0.90696
                        -----------------------------------------
Total Dipole Moment    :     -1.07085       0.70823      -0.67671
                        -----------------------------------------
Magnitude (a.u.)       :      1.45129
Magnitude (Debye)      :      3.68890

                             ****ORCA TERMINATED NORMALLY****
TOTAL RUN TIME: 0 days 0 hours 0 minutes 5 seconds 84 msec
