                         Program Version 3.0.3 - RELEASE   -
|  1> ! RI PBE def2-SVP def2-SVP/J NBO PAL2
|  2> % maxcore 2000
|  3> % output
|  4>     # printlevel mini
|  5>     print[ P_Basis ] 0
|  6>     print[ P_SCFInfo ] 1
|  7>     print[ P_SCFIterInfo ] 1
|  8>     print[ P_OrbEn ] 0
|  9>     print[ P_Cartesian ] 0
| 10> end
| 11> *xyz 0 1
| 12>  N        0.7249050000     0.2829170000    -0.0693900000
| 13>  C        1.9573770000     0.3424180000     0.4941730000
| 14>  O        2.2103760000     1.0883950000     1.4161730000
| 15>  C        2.9806190000    -0.6107400000    -0.0921710000
| 16>  C        4.3957100000    -0.0496400000    -0.0241830000
| 17>  C        5.4236910000    -1.0624370000    -0.4000030000
| 18>  C        6.2804060000    -0.9471360000    -1.4051360000
| 19>  H       -0.0068630000     0.8535020000     0.3174030000
| 20>  H        0.5147480000    -0.3368290000    -0.8289590000
| 21>  H        2.7210900000    -0.8803230000    -1.1202660000
| 22>  H        2.9205950000    -1.5346040000     0.4961360000
| 23>  H        4.5631440000     0.3006490000     0.9993050000
| 24>  H        4.4795280000     0.8271440000    -0.6727290000
| 25>  H        5.4524790000    -1.9618350000     0.2146600000
| 26>  H        6.2883540000    -0.0684480000    -2.0432340000
| 27>  H        7.0092390000    -1.7192420000    -1.6226790000
| 28> *
| 29>
| 30>                          ****END OF INPUT****
 Total Charge           Charge          ....    0
 Multiplicity           Mult            ....    1
 Number of Electrons    NEL             ....   54
 Basis Dimension        Dim             ....  143

MULLIKEN ATOMIC CHARGES
-----------------------
   0 N :   -0.048464
   1 C :   -0.016396
   2 O :   -0.206113
   3 C :   -0.031145
   4 C :    0.064768
   5 C :   -0.082861
   6 C :   -0.041577
   7 H :    0.117165
   8 H :    0.108745
   9 H :    0.004920
  10 H :    0.041034
  11 H :    0.040568
  12 H :    0.008796
  13 H :    0.000942
  14 H :    0.017183
  15 H :    0.022435
Sum of atomic charges:   -0.0000000

LOEWDIN ATOMIC CHARGES
----------------------
   0 N :    0.012303
   1 C :    0.027038
   2 O :   -0.190827
   3 C :   -0.066627
   4 C :   -0.034435
   5 C :   -0.028949
   6 C :   -0.072179
   7 H :    0.072833
   8 H :    0.070246
   9 H :    0.023778
  10 H :    0.044527
  11 H :    0.041620
  12 H :    0.031503
  13 H :    0.024078
  14 H :    0.021350
  15 H :    0.023743

  Mayer bond orders larger than 0.1
B(  0-N ,  1-C ) :   1.2606 B(  0-N ,  7-H ) :   0.9379 B(  0-N ,  8-H ) :   0.9422
B(  1-C ,  2-O ) :   2.1019 B(  1-C ,  3-C ) :   0.9416 B(  3-C ,  4-C ) :   1.0773
B(  3-C ,  9-H ) :   0.9279 B(  3-C , 10-H ) :   0.9077 B(  4-C ,  5-C ) :   1.0637
B(  4-C , 11-H ) :   0.8996 B(  4-C , 12-H ) :   0.9394 B(  5-C ,  6-C ) :   2.0134
B(  5-C , 13-H ) :   0.9523 B(  6-C , 14-H ) :   0.9471 B(  6-C , 15-H ) :   0.9427

FINAL SINGLE POINT ENERGY      -325.275870249272

DIPOLE MOMENT
-------------
                                X             Y             Z
Electronic contribution:     -4.31956       2.60459       3.12422
Nuclear contribution   :      3.49915      -3.27210      -3.99753
                        -----------------------------------------
Total Dipole Moment    :     -0.82040      -0.66751      -0.87332
                        -----------------------------------------
Magnitude (a.u.)       :      1.37161
Magnitude (Debye)      :      3.48635

                             ****ORCA TERMINATED NORMALLY****
TOTAL RUN TIME: 0 days 0 hours 0 minutes 7 seconds 633 msec
