                         Program Version 3.0.3 - RELEASE   -
|  1> ! RI PBE def2-SVP def2-SVP/J NBO PAL2
|  2> % maxcore 2000
|  3> % output
|  4>     # printlevel mini
|  5>     print[ P_Basis ] 0
|  6>     print[ P_SCFInfo ] 1
|  7>     print[ P_SCFIterInfo ] 1
|  8>     print[ P_OrbEn ] 0
|  9>     print[ P_Cartesian ] 0
| 10> end
| 11> *xyz 0 1
| 12>  N        1.2519280000    -0.4534990000     0.0297510000
| 13>  C        2.6039120000    -0.3678580000     0.0945150000
| 14>  O        3.2894260000    -1.2588780000     0.5484910000
| 15>  C        3.1828100000     0.9269920000    -0.4417950000
| 16>  C        4.7039970000     0.9414730000    -0.3630890000
| 17>  C        5.2681140000     2.1803340000    -0.8705910000
| 18>  C        5.7181990000     3.2100970000    -1.2933470000
| 19>  H        0.8072030000    -1.2874390000     0.3715140000
| 20>  H        0.6867200000     0.2834940000    -0.3488010000
| 21>  H        2.7671620000     1.7655200000     0.1258320000
| 22>  H        2.8559520000     1.0653810000    -1.4771410000
| 23>  H        5.1066840000     0.0930030000    -0.9227070000
| 24>  H        5.0169870000     0.7866640000     0.6728400000
| 25>  H        6.1273060000     4.1191070000    -1.6657610000
| 26> *
| 27>
| 28>                          ****END OF INPUT****
 Total Charge           Charge          ....    0
 Multiplicity           Mult            ....    1
 Number of Electrons    NEL             ....   52
 Basis Dimension        Dim             ....  133

MULLIKEN ATOMIC CHARGES
-----------------------
   0 N :   -0.042235
   1 C :   -0.007749
   2 O :   -0.204675
   3 C :   -0.074575
   4 C :    0.115011
   5 C :    0.338321
   6 C :   -0.520678
   7 H :    0.117702
   8 H :    0.108507
   9 H :    0.043910
  10 H :    0.041617
  11 H :    0.044462
  12 H :    0.044584
  13 H :   -0.004202
Sum of atomic charges:   -0.0000000

LOEWDIN ATOMIC CHARGES
----------------------
   0 N :    0.009911
   1 C :    0.026938
   2 O :   -0.185935
   3 C :   -0.064289
   4 C :   -0.038273
   5 C :   -0.021727
   6 C :   -0.096604
   7 H :    0.074161
   8 H :    0.072054
   9 H :    0.041685
  10 H :    0.040319
  11 H :    0.054369
  12 H :    0.054232
  13 H :    0.033158

  Mayer bond orders larger than 0.1
B(  0-N ,  1-C ) :   1.2798 B(  0-N ,  7-H ) :   0.9343 B(  0-N ,  8-H ) :   0.9421
B(  1-C ,  2-O ) :   2.0909 B(  1-C ,  3-C ) :   0.9314 B(  3-C ,  4-C ) :   1.0878
B(  3-C ,  9-H ) :   0.9201 B(  3-C , 10-H ) :   0.9226 B(  4-C ,  5-C ) :   1.0402
B(  4-C , 11-H ) :   0.8951 B(  4-C , 12-H ) :   0.8958 B(  5-C ,  6-C ) :   2.3321
B(  5-C , 13-H ) :  -0.1106 B(  6-C , 13-H ) :   1.1010

FINAL SINGLE POINT ENERGY      -324.033281756081

DIPOLE MOMENT
-------------
                                X             Y             Z
Electronic contribution:      0.59786      -1.61835       0.78255
Nuclear contribution   :     -1.87582       2.09872      -1.09532
                        -----------------------------------------
Total Dipole Moment    :     -1.27796       0.48038      -0.31277
                        -----------------------------------------
Magnitude (a.u.)       :      1.40063
Magnitude (Debye)      :      3.56012

                             ****ORCA TERMINATED NORMALLY****
TOTAL RUN TIME: 0 days 0 hours 0 minutes 6 seconds 402 msec
