                         Program Version 3.0.3 - RELEASE   -
|  1> ! RI PBE def2-SVP def2-SVP/J NBO PAL2
|  2> % maxcore 2000
|  3> % output
|  4>     # printlevel mini
|  5>     print[ P_Basis ] 0
|  6>     print[ P_SCFInfo ] 1
|  7>     print[ P_SCFIterInfo ] 1
|  8>     print[ P_OrbEn ] 0
|  9>     print[ P_Cartesian ] 0
| 10> end
| 11> *xyz 0 1
| 12>  N        1.3042630000    -0.8188530000     0.3449490000
| 13>  C        2.5624050000    -0.3347580000     0.2207210000
| 14>  O        3.0973730000     0.3503340000     1.0664840000
| 15>  C        3.2451490000    -0.7114520000    -1.0507260000
| 16>  C        4.4869140000    -0.2843270000    -1.2700180000
| 17>  C        5.2131750000    -0.5929560000    -2.4487530000
| 18>  N        5.8170120000    -0.8342240000    -3.3999930000
| 19>  H        0.7877240000    -0.6010870000     1.1796460000
| 20>  H        0.8735130000    -1.3845370000    -0.3626270000
| 21>  H        2.7293480000    -1.3256640000    -1.7814750000
| 22>  H        4.9737250000     0.3291360000    -0.5167990000
| 23> *
| 24>
| 25>                          ****END OF INPUT****
 Total Charge           Charge          ....    0
 Multiplicity           Mult            ....    1
 Number of Electrons    NEL             ....   50
 Basis Dimension        Dim             ....  118

MULLIKEN ATOMIC CHARGES
-----------------------
   0 N :   -0.037277
   1 C :    0.045232
   2 O :   -0.190745
   3 C :   -0.044466
   4 C :   -0.085299
   5 C :   -0.071931
   6 N :    0.055440
   7 H :    0.126700
   8 H :    0.114948
   9 H :    0.017584
  10 H :    0.069811
Sum of atomic charges:   -0.0000000

LOEWDIN ATOMIC CHARGES
----------------------
   0 N :    0.028235
   1 C :    0.020135
   2 O :   -0.178643
   3 C :   -0.022122
   4 C :   -0.019382
   5 C :   -0.038410
   6 N :   -0.041097
   7 H :    0.080787
   8 H :    0.075579
   9 H :    0.033930
  10 H :    0.060989

  Mayer bond orders larger than 0.1
B(  0-N ,  1-C ) :   1.2621 B(  0-N ,  2-O ) :   0.1076 B(  0-N ,  7-H ) :   0.9329
B(  0-N ,  8-H ) :   0.9399 B(  1-C ,  2-O ) :   2.0945 B(  1-C ,  3-C ) :   0.9258
B(  3-C ,  4-C ) :   1.8215 B(  3-C ,  6-N ) :   0.1131 B(  3-C ,  9-H ) :   0.9493
B(  4-C ,  5-C ) :   1.0805 B(  4-C , 10-H ) :   0.9405 B(  5-C ,  6-N ) :   2.9572

FINAL SINGLE POINT ENERGY      -338.895202357891

DIPOLE MOMENT
-------------
                                X             Y             Z
Electronic contribution:      2.90563       0.54908      -1.36186
Nuclear contribution   :     -4.69620      -1.08491       1.82816
                        -----------------------------------------
Total Dipole Moment    :     -1.79057      -0.53583       0.46630
                        -----------------------------------------
Magnitude (a.u.)       :      1.92632
Magnitude (Debye)      :      4.89632

                             ****ORCA TERMINATED NORMALLY****
TOTAL RUN TIME: 0 days 0 hours 0 minutes 5 seconds 330 msec
