                         Program Version 3.0.3 - RELEASE   -
|  1> ! RI PBE def2-SVP def2-SVP/J NBO PAL2
|  2> % maxcore 2000
|  3> % output
|  4>     # printlevel mini
|  5>     print[ P_Basis ] 0
|  6>     print[ P_SCFInfo ] 1
|  7>     print[ P_SCFIterInfo ] 1
|  8>     print[ P_OrbEn ] 0
|  9>     print[ P_Cartesian ] 0
| 10> end
| 11> *xyz 0 1
| 12>  N        1.3303370000    -0.8561080000     0.2597990000
| 13>  C        2.4439940000    -0.1233450000     0.0097660000
| 14>  O        2.8663830000     0.7345860000     0.7472410000
| 15>  C        3.1146840000    -0.4111000000    -1.3092670000
| 16>  C        2.4491280000    -0.7226180000    -2.4221460000
| 17>  C        4.5321840000    -0.2355560000    -1.3350920000
| 18>  N        5.6770580000    -0.1254280000    -1.3710890000
| 19>  H        0.8883940000    -0.7183130000     1.1533790000
| 20>  H        1.1558720000    -1.7159440000    -0.2277500000
| 21>  H        1.3701810000    -0.8191390000    -2.4160040000
| 22>  H        2.9629840000    -0.8548240000    -3.3659370000
| 23> *
| 24>
| 25>                          ****END OF INPUT****
 Total Charge           Charge          ....    0
 Multiplicity           Mult            ....    1
 Number of Electrons    NEL             ....   50
 Basis Dimension        Dim             ....  118

MULLIKEN ATOMIC CHARGES
-----------------------
   0 N :   -0.060619
   1 C :    0.082768
   2 O :   -0.155796
   3 C :   -0.222848
   4 C :    0.047144
   5 C :   -0.104194
   6 N :    0.073721
   7 H :    0.129540
   8 H :    0.120575
   9 H :    0.037437
  10 H :    0.052271
Sum of atomic charges:    0.0000000

LOEWDIN ATOMIC CHARGES
----------------------
   0 N :    0.019907
   1 C :    0.032174
   2 O :   -0.149532
   3 C :   -0.093123
   4 C :    0.017902
   5 C :   -0.025128
   6 N :   -0.034691
   7 H :    0.082069
   8 H :    0.075603
   9 H :    0.031948
  10 H :    0.042872

  Mayer bond orders larger than 0.1
B(  0-N ,  1-C ) :   1.2472 B(  0-N ,  7-H ) :   0.9369 B(  0-N ,  8-H ) :   0.9403
B(  1-C ,  2-O ) :   2.1546 B(  1-C ,  3-C ) :   0.8689 B(  3-C ,  4-C ) :   1.9233
B(  3-C ,  5-C ) :   1.1232 B(  4-C ,  6-N ) :   0.1089 B(  4-C ,  9-H ) :   0.9315
B(  4-C , 10-H ) :   0.9381 B(  5-C ,  6-N ) :   2.9919

FINAL SINGLE POINT ENERGY      -338.886736282849

DIPOLE MOMENT
-------------
                                X             Y             Z
Electronic contribution:      3.69854       1.64832       1.38605
Nuclear contribution   :     -5.77438      -2.90248      -1.82833
                        -----------------------------------------
Total Dipole Moment    :     -2.07584      -1.25416      -0.44227
                        -----------------------------------------
Magnitude (a.u.)       :      2.46528
Magnitude (Debye)      :      6.26625

                             ****ORCA TERMINATED NORMALLY****
TOTAL RUN TIME: 0 days 0 hours 0 minutes 5 seconds 614 msec
