                         Program Version 3.0.3 - RELEASE   -
|  1> ! RI PBE def2-SVP def2-SVP/J NBO PAL2
|  2> % maxcore 2000
|  3> % output
|  4>     # printlevel mini
|  5>     print[ P_Basis ] 0
|  6>     print[ P_SCFInfo ] 1
|  7>     print[ P_SCFIterInfo ] 1
|  8>     print[ P_OrbEn ] 0
|  9>     print[ P_Cartesian ] 0
| 10> end
| 11> *xyz 0 1
| 12>  N        0.9564500000    -0.0258620000     0.0687470000
| 13>  C        2.3038450000     0.0281740000     0.0126700000
| 14>  O        2.9408130000     0.7378200000    -0.7300110000
| 15>  C        2.9761430000    -0.8688740000     0.9502860000
| 16>  C        3.5978800000    -1.5825010000     1.6962750000
| 17>  C        4.2959280000    -2.3948380000     2.5458200000
| 18>  N        4.8782250000    -3.0839680000     3.2665130000
| 19>  H        0.4282710000     0.5657640000    -0.5502260000
| 20>  H        0.4777440000    -0.6358050000     0.7065260000
| 21> *
| 22>
| 23>                          ****END OF INPUT****
 Total Charge           Charge          ....    0
 Multiplicity           Mult            ....    1
 Number of Electrons    NEL             ....   48
 Basis Dimension        Dim             ....  108

MULLIKEN ATOMIC CHARGES
-----------------------
   0 N :   -0.042928
   1 C :    0.030950
   2 O :   -0.147869
   3 C :   -0.105853
   4 C :    0.030636
   5 C :   -0.140636
   6 N :    0.110088
   7 H :    0.136367
   8 H :    0.129246
Sum of atomic charges:   -0.0000000

LOEWDIN ATOMIC CHARGES
----------------------
   0 N :    0.040764
   1 C :    0.008759
   2 O :   -0.137187
   3 C :    0.012306
   4 C :   -0.046110
   5 C :   -0.042889
   6 N :   -0.005532
   7 H :    0.085243
   8 H :    0.084645

  Mayer bond orders larger than 0.1
B(  0-N ,  1-C ) :   1.2897 B(  0-N ,  2-O ) :   0.1186 B(  0-N ,  7-H ) :   0.9329
B(  0-N ,  8-H ) :   0.9376 B(  1-C ,  2-O ) :   2.1190 B(  1-C ,  3-C ) :   0.8248
B(  3-C ,  4-C ) :   2.4923 B(  3-C ,  5-C ) :  -0.1102 B(  3-C ,  6-N ) :   0.1905
B(  4-C ,  5-C ) :   1.0080 B(  4-C ,  6-N ) :   0.1042 B(  5-C ,  6-N ) :   2.8656

FINAL SINGLE POINT ENERGY      -337.647741291301

DIPOLE MOMENT
-------------
                                X             Y             Z
Electronic contribution:      2.98022      -1.46076       1.52782
Nuclear contribution   :     -4.89612       1.74171      -1.82155
                        -----------------------------------------
Total Dipole Moment    :     -1.91590       0.28095      -0.29373
                        -----------------------------------------
Magnitude (a.u.)       :      1.95854
Magnitude (Debye)      :      4.97820

                             ****ORCA TERMINATED NORMALLY****
TOTAL RUN TIME: 0 days 0 hours 0 minutes 4 seconds 874 msec
