                         Program Version 3.0.3 - RELEASE   -
|  1> ! RI PBE def2-SVP def2-SVP/J NBO PAL2
|  2> % maxcore 2000
|  3> % output
|  4>     # printlevel mini
|  5>     print[ P_Basis ] 0
|  6>     print[ P_SCFInfo ] 1
|  7>     print[ P_SCFIterInfo ] 1
|  8>     print[ P_OrbEn ] 0
|  9>     print[ P_Cartesian ] 0
| 10> end
| 11> *xyz 0 1
| 12>  N        1.0848320000     0.1022660000     0.1388780000
| 13>  C        2.4217330000     0.2863220000     0.2451760000
| 14>  O        2.9098750000     1.2322360000     0.8248840000
| 15>  C        3.2654220000    -0.7855370000    -0.4206060000
| 16>  C        4.7497070000    -0.4889530000    -0.2521540000
| 17>  C        5.5766800000    -1.5047760000    -0.8818370000
| 18>  N        6.2143870000    -2.3179540000    -1.3857200000
| 19>  H        0.4725280000     0.7793100000     0.5597620000
| 20>  H        0.6880100000    -0.6828930000    -0.3432470000
| 21>  H        3.0058030000    -0.8428500000    -1.4818560000
| 22>  H        3.0195190000    -1.7595540000     0.0127250000
| 23>  H        5.0048190000    -0.4260430000     0.8079880000
| 24>  H        4.9916950000     0.4860260000    -0.6809130000
| 25> *
| 26>
| 27>                          ****END OF INPUT****
 Total Charge           Charge          ....    0
 Multiplicity           Mult            ....    1
 Number of Electrons    NEL             ....   52
 Basis Dimension        Dim             ....  128

MULLIKEN ATOMIC CHARGES
-----------------------
   0 N :   -0.039005
   1 C :    0.008589
   2 O :   -0.205910
   3 C :   -0.095531
   4 C :    0.090614
   5 C :   -0.287021
   6 N :    0.059085
   7 H :    0.123810
   8 H :    0.111794
   9 H :    0.056786
  10 H :    0.053581
  11 H :    0.062774
  12 H :    0.060434
Sum of atomic charges:   -0.0000000

LOEWDIN ATOMIC CHARGES
----------------------
   0 N :    0.016091
   1 C :    0.026773
   2 O :   -0.184246
   3 C :   -0.061997
   4 C :   -0.049149
   5 C :   -0.045872
   6 N :   -0.071403
   7 H :    0.077887
   8 H :    0.074402
   9 H :    0.045226
  10 H :    0.044916
  11 H :    0.063762
  12 H :    0.063610

  Mayer bond orders larger than 0.1
B(  0-N ,  1-C ) :   1.2926 B(  0-N ,  7-H ) :   0.9346 B(  0-N ,  8-H ) :   0.9421
B(  1-C ,  2-O ) :   2.0814 B(  1-C ,  3-C ) :   0.9336 B(  3-C ,  4-C ) :   1.1079
B(  3-C ,  9-H ) :   0.9225 B(  3-C , 10-H ) :   0.9214 B(  4-C ,  5-C ) :   1.1080
B(  4-C , 11-H ) :   0.8915 B(  4-C , 12-H ) :   0.8888 B(  5-C ,  6-N ) :   3.0599

FINAL SINGLE POINT ENERGY      -340.113028418526

DIPOLE MOMENT
-------------
                                X             Y             Z
Electronic contribution:      2.54420      -0.10392      -0.07802
Nuclear contribution   :     -4.45827       0.23181       0.16728
                        -----------------------------------------
Total Dipole Moment    :     -1.91407       0.12790       0.08927
                        -----------------------------------------
Magnitude (a.u.)       :      1.92041
Magnitude (Debye)      :      4.88131

                             ****ORCA TERMINATED NORMALLY****
TOTAL RUN TIME: 0 days 0 hours 0 minutes 6 seconds 172 msec
