                         Program Version 3.0.3 - RELEASE   -
|  1> ! RI PBE def2-SVP def2-SVP/J NBO PAL2
|  2> % maxcore 2000
|  3> % output
|  4>     # printlevel mini
|  5>     print[ P_Basis ] 0
|  6>     print[ P_SCFInfo ] 1
|  7>     print[ P_SCFIterInfo ] 1
|  8>     print[ P_OrbEn ] 0
|  9>     print[ P_Cartesian ] 0
| 10> end
| 11> *xyz 0 1
| 12>  N        1.5765800000     0.1237190000    -1.4404370000
| 13>  C        1.9343540000     0.5627000000    -0.2064830000
| 14>  O        1.4223340000     1.5275100000     0.3235490000
| 15>  C        3.0288480000    -0.2467160000     0.4600540000
| 16>  C        4.4252170000     0.2996990000     0.1582440000
| 17>  C        4.7547670000     0.3708560000    -1.3231520000
| 18>  O        4.4722530000    -0.8324290000    -2.0217910000
| 19>  H        0.9413320000     0.6947060000    -1.9720890000
| 20>  H        2.1606020000    -0.5385270000    -1.9257010000
| 21>  H        2.9668080000    -1.2901640000     0.1427120000
| 22>  H        2.8469290000    -0.2053730000     1.5343550000
| 23>  H        5.1621280000    -0.3299000000     0.6705780000
| 24>  H        4.5281920000     1.3046080000     0.5796870000
| 25>  H        5.8038190000     0.6604940000    -1.4598780000
| 26>  H        4.1439920000     1.1343130000    -1.8094060000
| 27>  H        5.0446440000    -1.5262940000    -1.6840320000
| 28> *
| 29>
| 30>                          ****END OF INPUT****
 Total Charge           Charge          ....    0
 Multiplicity           Mult            ....    1
 Number of Electrons    NEL             ....   56
 Basis Dimension        Dim             ....  143

MULLIKEN ATOMIC CHARGES
-----------------------
   0 N :   -0.055630
   1 C :   -0.054232
   2 O :   -0.207399
   3 C :    0.020551
   4 C :   -0.054425
   5 C :    0.145533
   6 O :   -0.294826
   7 H :    0.110134
   8 H :    0.113015
   9 H :    0.005314
  10 H :    0.031700
  11 H :    0.016623
  12 H :    0.025789
  13 H :    0.011916
  14 H :    0.024914
  15 H :    0.161024
Sum of atomic charges:    0.0000000

LOEWDIN ATOMIC CHARGES
----------------------
   0 N :    0.012407
   1 C :    0.021087
   2 O :   -0.197772
   3 C :   -0.068488
   4 C :   -0.054539
   5 C :    0.050539
   6 O :   -0.121800
   7 H :    0.069234
   8 H :    0.062186
   9 H :    0.021217
  10 H :    0.041623
  11 H :    0.023376
  12 H :    0.036631
  13 H :    0.011563
  14 H :    0.020261
  15 H :    0.072475

  Mayer bond orders larger than 0.1
B(  0-N ,  1-C ) :   1.2439 B(  0-N ,  7-H ) :   0.9409 B(  0-N ,  8-H ) :   0.9233
B(  1-C ,  2-O ) :   2.1242 B(  1-C ,  3-C ) :   0.9768 B(  3-C ,  4-C ) :   1.0886
B(  3-C ,  9-H ) :   0.9146 B(  3-C , 10-H ) :   0.9147 B(  4-C ,  5-C ) :   1.0839
B(  4-C , 11-H ) :   0.9340 B(  4-C , 12-H ) :   0.9187 B(  5-C ,  6-O ) :   1.0294
B(  5-C , 13-H ) :   0.9407 B(  5-C , 14-H ) :   0.9325 B(  6-O , 15-H ) :   0.9796

FINAL SINGLE POINT ENERGY      -362.357107574988

DIPOLE MOMENT
-------------
                                X             Y             Z
Electronic contribution:     -4.24576       1.19011      -0.25634
Nuclear contribution   :      5.29570      -2.10235      -0.30680
                        -----------------------------------------
Total Dipole Moment    :      1.04994      -0.91224      -0.56314
                        -----------------------------------------
Magnitude (a.u.)       :      1.50056
Magnitude (Debye)      :      3.81413

                             ****ORCA TERMINATED NORMALLY****
TOTAL RUN TIME: 0 days 0 hours 0 minutes 7 seconds 712 msec
