                         Program Version 3.0.3 - RELEASE   -
|  1> ! RI PBE def2-SVP def2-SVP/J NBO PAL2
|  2> % maxcore 2000
|  3> % output
|  4>     # printlevel mini
|  5>     print[ P_Basis ] 0
|  6>     print[ P_SCFInfo ] 1
|  7>     print[ P_SCFIterInfo ] 1
|  8>     print[ P_OrbEn ] 0
|  9>     print[ P_Cartesian ] 0
| 10> end
| 11> *xyz 0 1
| 12>  N        1.0815870000    -0.4387270000     0.1078430000
| 13>  C        2.4273970000    -0.2508870000     0.1505190000
| 14>  O        3.0630700000    -0.3642300000     1.1799750000
| 15>  C        3.0415840000     0.0870000000    -1.1589000000
| 16>  C        4.3412650000     0.3443770000    -1.2413420000
| 17>  C        5.0765610000     0.6888720000    -2.4883210000
| 18>  O        4.3157820000     0.6269880000    -3.6674960000
| 19>  H        0.5996480000    -0.6118980000     0.9725500000
| 20>  H        0.5466710000    -0.2554450000    -0.7204610000
| 21>  H        2.4102930000     0.1403450000    -2.0411310000
| 22>  H        4.9245620000     0.2970410000    -0.3235900000
| 23>  H        5.9748500000     0.0559900000    -2.5553050000
| 24>  H        5.4431730000     1.7190030000    -2.4124470000
| 25>  H        4.0455560000    -0.2855380000    -3.8024830000
| 26> *
| 27>
| 28>                          ****END OF INPUT****
 Total Charge           Charge          ....    0
 Multiplicity           Mult            ....    1
 Number of Electrons    NEL             ....   54
 Basis Dimension        Dim             ....  133

MULLIKEN ATOMIC CHARGES
-----------------------
   0 N :   -0.052896
   1 C :    0.042785
   2 O :   -0.206009
   3 C :   -0.072841
   4 C :   -0.110409
   5 C :    0.239291
   6 O :   -0.272995
   7 H :    0.115251
   8 H :    0.106980
   9 H :   -0.027491
  10 H :    0.024446
  11 H :    0.019691
  12 H :    0.035393
  13 H :    0.158804
Sum of atomic charges:   -0.0000000

LOEWDIN ATOMIC CHARGES
----------------------
   0 N :    0.012729
   1 C :    0.021414
   2 O :   -0.197939
   3 C :   -0.095810
   4 C :   -0.007530
   5 C :    0.052516
   6 O :   -0.111298
   7 H :    0.073039
   8 H :    0.069704
   9 H :    0.013165
  10 H :    0.037075
  11 H :    0.021587
  12 H :    0.040818
  13 H :    0.070531

  Mayer bond orders larger than 0.1
B(  0-N ,  1-C ) :   1.2419 B(  0-N ,  7-H ) :   0.9358 B(  0-N ,  8-H ) :   0.9412
B(  1-C ,  2-O ) :   2.1021 B(  1-C ,  3-C ) :   0.9360 B(  3-C ,  4-C ) :   1.8737
B(  3-C ,  9-H ) :   0.9297 B(  4-C ,  5-C ) :   1.0151 B(  4-C , 10-H ) :   0.9322
B(  5-C ,  6-O ) :   1.0974 B(  5-C , 11-H ) :   0.9228 B(  5-C , 12-H ) :   0.9098
B(  6-O , 13-H ) :   0.9778

FINAL SINGLE POINT ENERGY      -361.137963002324

DIPOLE MOMENT
-------------
                                X             Y             Z
Electronic contribution:     -1.31115      -0.64707       2.54470
Nuclear contribution   :      0.62862       0.37063      -3.31344
                        -----------------------------------------
Total Dipole Moment    :     -0.68253      -0.27645      -0.76874
                        -----------------------------------------
Magnitude (a.u.)       :      1.06454
Magnitude (Debye)      :      2.70583

                             ****ORCA TERMINATED NORMALLY****
TOTAL RUN TIME: 0 days 0 hours 0 minutes 6 seconds 458 msec
