                         Program Version 3.0.3 - RELEASE   -
|  1> ! RI PBE def2-SVP def2-SVP/J NBO PAL2
|  2> % maxcore 2000
|  3> % output
|  4>     # printlevel mini
|  5>     print[ P_Basis ] 0
|  6>     print[ P_SCFInfo ] 1
|  7>     print[ P_SCFIterInfo ] 1
|  8>     print[ P_OrbEn ] 0
|  9>     print[ P_Cartesian ] 0
| 10> end
| 11> *xyz 0 1
| 12>  N        1.1248880000    -0.0686090000    -0.0963530000
| 13>  C        2.4710140000    -0.0670480000     0.0631130000
| 14>  O        3.0802800000    -1.0007060000     0.5417860000
| 15>  C        3.1390810000     1.1819210000    -0.3997710000
| 16>  C        4.4576300000     1.3270400000    -0.3054430000
| 17>  C        5.1365390000     2.5589230000    -0.7596590000
| 18>  O        4.5693980000     3.5074750000    -1.2397050000
| 19>  H        0.6078940000    -0.8800990000     0.1949040000
| 20>  H        0.6326060000     0.7100580000    -0.4932640000
| 21>  H        2.5460500000     1.9894180000    -0.8214120000
| 22>  H        5.0550410000     0.5235850000     0.1149540000
| 23>  H        6.2372900000     2.5679510000    -0.6322500000
| 24> *
| 25>
| 26>                          ****END OF INPUT****
 Total Charge           Charge          ....    0
 Multiplicity           Mult            ....    1
 Number of Electrons    NEL             ....   52
 Basis Dimension        Dim             ....  123

MULLIKEN ATOMIC CHARGES
-----------------------
   0 N :   -0.042492
   1 C :    0.043248
   2 O :   -0.189099
   3 C :   -0.028102
   4 C :   -0.030652
   5 C :    0.137104
   6 O :   -0.155164
   7 H :    0.122890
   8 H :    0.114758
   9 H :    0.008865
  10 H :    0.025077
  11 H :   -0.006435
Sum of atomic charges:   -0.0000000

LOEWDIN ATOMIC CHARGES
----------------------
   0 N :    0.025513
   1 C :    0.017912
   2 O :   -0.181575
   3 C :   -0.007268
   4 C :   -0.041894
   5 C :    0.081411
   6 O :   -0.106891
   7 H :    0.078217
   8 H :    0.075028
   9 H :    0.027977
  10 H :    0.038206
  11 H :   -0.006636

  Mayer bond orders larger than 0.1
B(  0-N ,  1-C ) :   1.2541 B(  0-N ,  2-O ) :   0.1071 B(  0-N ,  7-H ) :   0.9338
B(  0-N ,  8-H ) :   0.9390 B(  1-C ,  2-O ) :   2.1104 B(  1-C ,  3-C ) :   0.9227
B(  3-C ,  4-C ) :   1.8125 B(  3-C ,  6-O ) :   0.1028 B(  3-C ,  9-H ) :   0.9335
B(  4-C ,  5-C ) :   0.9877 B(  4-C , 10-H ) :   0.9375 B(  5-C ,  6-O ) :   2.1401
B(  5-C , 11-H ) :   0.9327

FINAL SINGLE POINT ENERGY      -359.942194915954

DIPOLE MOMENT
-------------
                                X             Y             Z
Electronic contribution:      0.78898       0.27007      -0.02040
Nuclear contribution   :     -1.75742      -0.32383      -0.06808
                        -----------------------------------------
Total Dipole Moment    :     -0.96845      -0.05376      -0.08848
                        -----------------------------------------
Magnitude (a.u.)       :      0.97396
Magnitude (Debye)      :      2.47562

                             ****ORCA TERMINATED NORMALLY****
TOTAL RUN TIME: 0 days 0 hours 0 minutes 5 seconds 433 msec
