                         Program Version 3.0.3 - RELEASE   -
|  1> ! RI PBE def2-SVP def2-SVP/J NBO PAL2
|  2> % maxcore 2000
|  3> % output
|  4>     # printlevel mini
|  5>     print[ P_Basis ] 0
|  6>     print[ P_SCFInfo ] 1
|  7>     print[ P_SCFIterInfo ] 1
|  8>     print[ P_OrbEn ] 0
|  9>     print[ P_Cartesian ] 0
| 10> end
| 11> *xyz 0 1
| 12>  N        0.9844100000    -0.2135490000    -0.4906830000
| 13>  C        2.2268450000    -0.0225210000     0.0192280000
| 14>  O        2.7390110000     1.0777510000     0.0950300000
| 15>  C        2.9384890000    -1.2483630000     0.5019310000
| 16>  C        2.2987510000    -2.2851740000     1.0324890000
| 17>  C        4.4364250000    -1.1673250000     0.4086920000
| 18>  O        5.1112460000    -2.2310370000     1.0300930000
| 19>  H        0.5088650000     0.5879460000    -0.8683530000
| 20>  H        0.6593110000    -1.1310830000    -0.7325440000
| 21>  H        1.2211340000    -2.2984230000     1.1459130000
| 22>  H        2.8513750000    -3.1452010000     1.3924030000
| 23>  H        4.7480720000    -0.1902390000     0.7953270000
| 24>  H        4.7327950000    -1.1865240000    -0.6451550000
| 25>  H        5.0290640000    -2.1248570000     1.9815290000
| 26> *
| 27>
| 28>                          ****END OF INPUT****
 Total Charge           Charge          ....    0
 Multiplicity           Mult            ....    1
 Number of Electrons    NEL             ....   54
 Basis Dimension        Dim             ....  133

MULLIKEN ATOMIC CHARGES
-----------------------
   0 N :   -0.051080
   1 C :    0.047327
   2 O :   -0.203376
   3 C :   -0.219884
   4 C :   -0.026446
   5 C :    0.250698
   6 O :   -0.275866
   7 H :    0.119335
   8 H :    0.112897
   9 H :    0.015500
  10 H :    0.015200
  11 H :    0.030754
  12 H :    0.027084
  13 H :    0.157858
Sum of atomic charges:    0.0000000

LOEWDIN ATOMIC CHARGES
----------------------
   0 N :    0.018826
   1 C :    0.027212
   2 O :   -0.186260
   3 C :   -0.081968
   4 C :   -0.054005
   5 C :    0.062423
   6 O :   -0.107082
   7 H :    0.074852
   8 H :    0.071475
   9 H :    0.020500
  10 H :    0.021379
  11 H :    0.023446
  12 H :    0.036856
  13 H :    0.072346

  Mayer bond orders larger than 0.1
B(  0-N ,  1-C ) :   1.2629 B(  0-N ,  7-H ) :   0.9361 B(  0-N ,  8-H ) :   0.9395
B(  1-C ,  2-O ) :   2.0857 B(  1-C ,  3-C ) :   0.9036 B(  3-C ,  4-C ) :   1.9675
B(  3-C ,  5-C ) :   0.9912 B(  4-C ,  9-H ) :   0.9359 B(  4-C , 10-H ) :   0.9157
B(  5-C ,  6-O ) :   1.0860 B(  5-C , 11-H ) :   0.9219 B(  5-C , 12-H ) :   0.9176
B(  6-O , 13-H ) :   0.9819

FINAL SINGLE POINT ENERGY      -361.135088983297

DIPOLE MOMENT
-------------
                                X             Y             Z
Electronic contribution:      0.12641       2.60245      -0.47823
Nuclear contribution   :     -1.08506      -3.19048       0.42549
                        -----------------------------------------
Total Dipole Moment    :     -0.95865      -0.58803      -0.05274
                        -----------------------------------------
Magnitude (a.u.)       :      1.12586
Magnitude (Debye)      :      2.86172

                             ****ORCA TERMINATED NORMALLY****
TOTAL RUN TIME: 0 days 0 hours 0 minutes 6 seconds 419 msec
