                         Program Version 3.0.3 - RELEASE   -
|  1> ! RI PBE def2-SVP def2-SVP/J NBO PAL2
|  2> % maxcore 2000
|  3> % output
|  4>     # printlevel mini
|  5>     print[ P_Basis ] 0
|  6>     print[ P_SCFInfo ] 1
|  7>     print[ P_SCFIterInfo ] 1
|  8>     print[ P_OrbEn ] 0
|  9>     print[ P_Cartesian ] 0
| 10> end
| 11> *xyz 0 1
| 12>  N        2.7951210000     0.5539990000     0.7878920000
| 13>  C        2.2099530000     0.1788460000    -0.3623320000
| 14>  O        1.0092660000     0.0738550000    -0.5139140000
| 15>  C        3.1606790000    -0.1123290000    -1.4992890000
| 16>  C        2.6490270000    -0.4882040000    -2.6724150000
| 17>  C        4.6260500000    -0.0090470000    -1.4004620000
| 18>  O        5.2579520000     0.3149250000    -0.4223760000
| 19>  H        2.2046120000     0.7595900000     1.5748870000
| 20>  H        3.8017340000     0.6214380000     0.8461340000
| 21>  H        1.5754460000    -0.5777150000    -2.7906620000
| 22>  H        3.2914120000    -0.7084070000    -3.5186730000
| 23>  H        5.1527590000    -0.2636510000    -2.3424910000
| 24> *
| 25>
| 26>                          ****END OF INPUT****
 Total Charge           Charge          ....    0
 Multiplicity           Mult            ....    1
 Number of Electrons    NEL             ....   52
 Basis Dimension        Dim             ....  123

MULLIKEN ATOMIC CHARGES
-----------------------
   0 N :   -0.026122
   1 C :    0.034995
   2 O :   -0.196174
   3 C :   -0.147038
   4 C :    0.029334
   5 C :    0.160894
   6 O :   -0.176408
   7 H :    0.116707
   8 H :    0.111151
   9 H :    0.061969
  10 H :    0.039132
  11 H :   -0.008440
Sum of atomic charges:   -0.0000000

LOEWDIN ATOMIC CHARGES
----------------------
   0 N :    0.034289
   1 C :    0.021458
   2 O :   -0.192682
   3 C :   -0.113487
   4 C :    0.064140
   5 C :    0.090399
   6 O :   -0.109013
   7 H :    0.075791
   8 H :    0.056014
   9 H :    0.041408
  10 H :    0.031605
  11 H :    0.000079

  Mayer bond orders larger than 0.1
B(  0-N ,  1-C ) :   1.3312 B(  0-N ,  2-O ) :   0.1136 B(  0-N ,  7-H ) :   0.9297
B(  0-N ,  8-H ) :   0.8906 B(  1-C ,  2-O ) :   2.1123 B(  1-C ,  3-C ) :   0.8615
B(  3-C ,  4-C ) :   1.8727 B(  3-C ,  5-C ) :   0.9998 B(  4-C ,  9-H ) :   0.9222
B(  4-C , 10-H ) :   0.9339 B(  5-C ,  6-O ) :   2.0533 B(  5-C , 11-H ) :   0.9360
B(  6-O ,  8-H ) :   0.1086

FINAL SINGLE POINT ENERGY      -359.949791690470

DIPOLE MOMENT
-------------
                                X             Y             Z
Electronic contribution:      0.04806       0.48929       1.64254
Nuclear contribution   :      0.47910      -0.56141      -1.96786
                        -----------------------------------------
Total Dipole Moment    :      0.52716      -0.07213      -0.32532
                        -----------------------------------------
Magnitude (a.u.)       :      0.62365
Magnitude (Debye)      :      1.58518

                             ****ORCA TERMINATED NORMALLY****
TOTAL RUN TIME: 0 days 0 hours 0 minutes 5 seconds 955 msec
