                         Program Version 3.0.3 - RELEASE   -
|  1> ! RI PBE def2-SVP def2-SVP/J NBO PAL2
|  2> % maxcore 2000
|  3> % output
|  4>     # printlevel mini
|  5>     print[ P_Basis ] 0
|  6>     print[ P_SCFInfo ] 1
|  7>     print[ P_SCFIterInfo ] 1
|  8>     print[ P_OrbEn ] 0
|  9>     print[ P_Cartesian ] 0
| 10> end
| 11> *xyz 0 1
| 12>  N        1.0415970000     0.0089720000     0.1654030000
| 13>  C        2.3758970000     0.0893050000    -0.0541250000
| 14>  O        2.9829480000    -0.6525450000    -0.7953210000
| 15>  C        3.0383390000     1.1513520000     0.6867810000
| 16>  C        3.6356740000     2.0191760000     1.2694600000
| 17>  C        4.4216020000     3.0259260000     1.9701380000
| 18>  O        5.6552650000     3.3060180000     1.3528620000
| 19>  H        0.5187230000    -0.6941580000    -0.3273840000
| 20>  H        0.5678980000     0.6602060000     0.7636780000
| 21>  H        4.5540420000     2.6974850000     3.0112840000
| 22>  H        3.8701540000     3.9693350000     2.0009260000
| 23>  H        6.0950620000     2.4724380000     1.1625870000
| 24> *
| 25>
| 26>                          ****END OF INPUT****
 Total Charge           Charge          ....    0
 Multiplicity           Mult            ....    1
 Number of Electrons    NEL             ....   52
 Basis Dimension        Dim             ....  123

MULLIKEN ATOMIC CHARGES
-----------------------
   0 N :   -0.054510
   1 C :    0.031313
   2 O :   -0.176833
   3 C :   -0.081808
   4 C :   -0.183881
   5 C :    0.259328
   6 O :   -0.274674
   7 H :    0.124306
   8 H :    0.117363
   9 H :    0.034929
  10 H :    0.039230
  11 H :    0.165238
Sum of atomic charges:    0.0000000

LOEWDIN ATOMIC CHARGES
----------------------
   0 N :    0.025517
   1 C :    0.009683
   2 O :   -0.165393
   3 C :   -0.076978
   4 C :   -0.045381
   5 C :    0.050047
   6 O :   -0.107611
   7 H :    0.077250
   8 H :    0.077600
   9 H :    0.032601
  10 H :    0.046299
  11 H :    0.076365

  Mayer bond orders larger than 0.1
B(  0-N ,  1-C ) :   1.2704 B(  0-N ,  2-O ) :   0.1036 B(  0-N ,  7-H ) :   0.9356
B(  0-N ,  8-H ) :   0.9404 B(  1-C ,  2-O ) :   2.1198 B(  1-C ,  3-C ) :   0.8375
B(  3-C ,  4-C ) :   2.7109 B(  4-C ,  5-C ) :   1.0235 B(  5-C ,  6-O ) :   1.0730
B(  5-C ,  9-H ) :   0.9123 B(  5-C , 10-H ) :   0.8999 B(  6-O , 11-H ) :   0.9808

FINAL SINGLE POINT ENERGY      -359.888327222148

DIPOLE MOMENT
-------------
                                X             Y             Z
Electronic contribution:     -0.08870      -2.27801      -2.22245
Nuclear contribution   :     -0.98023       2.51236       3.13952
                        -----------------------------------------
Total Dipole Moment    :     -1.06893       0.23434       0.91707
                        -----------------------------------------
Magnitude (a.u.)       :      1.42778
Magnitude (Debye)      :      3.62912

                             ****ORCA TERMINATED NORMALLY****
TOTAL RUN TIME: 0 days 0 hours 0 minutes 5 seconds 603 msec
