                         Program Version 3.0.3 - RELEASE   -
|  1> ! RI PBE def2-SVP def2-SVP/J NBO PAL2
|  2> % maxcore 2000
|  3> % output
|  4>     # printlevel mini
|  5>     print[ P_Basis ] 0
|  6>     print[ P_SCFInfo ] 1
|  7>     print[ P_SCFIterInfo ] 1
|  8>     print[ P_OrbEn ] 0
|  9>     print[ P_Cartesian ] 0
| 10> end
| 11> *xyz 0 1
| 12>  N        0.9720000000    -0.1057660000     0.2031420000
| 13>  C        2.2558900000     0.2143270000    -0.0693870000
| 14>  O        2.8043400000     1.2310430000     0.2896430000
| 15>  C        2.9651750000    -0.7828170000    -0.8635810000
| 16>  C        3.6075310000    -1.5806500000    -1.4997330000
| 17>  C        4.3796400000    -2.4934650000    -2.3077200000
| 18>  O        4.7631940000    -3.5659600000    -1.9226710000
| 19>  H        0.4322340000     0.5282510000     0.7673900000
| 20>  H        0.5809310000    -0.9896200000    -0.0682410000
| 21>  H        4.5962750000    -2.1258540000    -3.3281510000
| 22> *
| 23>
| 24>                          ****END OF INPUT****
 Total Charge           Charge          ....    0
 Multiplicity           Mult            ....    1
 Number of Electrons    NEL             ....   50
 Basis Dimension        Dim             ....  113

MULLIKEN ATOMIC CHARGES
-----------------------
   0 N :   -0.051377
   1 C :    0.051109
   2 O :   -0.161362
   3 C :   -0.019493
   4 C :   -0.045882
   5 C :    0.087276
   6 O :   -0.145260
   7 H :    0.132579
   8 H :    0.125821
   9 H :    0.026588
Sum of atomic charges:    0.0000000

LOEWDIN ATOMIC CHARGES
----------------------
   0 N :    0.033843
   1 C :    0.010898
   2 O :   -0.144794
   3 C :   -0.018424
   4 C :   -0.047128
   5 C :    0.072415
   6 O :   -0.081742
   7 H :    0.082644
   8 H :    0.082853
   9 H :    0.009434

  Mayer bond orders larger than 0.1
B(  0-N ,  1-C ) :   1.2792 B(  0-N ,  2-O ) :   0.1125 B(  0-N ,  7-H ) :   0.9341
B(  0-N ,  8-H ) :   0.9389 B(  1-C ,  2-O ) :   2.1064 B(  1-C ,  3-C ) :   0.8402
B(  3-C ,  4-C ) :   2.6507 B(  3-C ,  6-O ) :   0.1146 B(  4-C ,  5-C ) :   0.9021
B(  5-C ,  6-O ) :   2.1368 B(  5-C ,  9-H ) :   0.9386

FINAL SINGLE POINT ENERGY      -358.689415263828

DIPOLE MOMENT
-------------
                                X             Y             Z
Electronic contribution:      1.91293      -0.43170      -0.11114
Nuclear contribution   :     -3.39694       0.39119      -0.05686
                        -----------------------------------------
Total Dipole Moment    :     -1.48401      -0.04051      -0.16800
                        -----------------------------------------
Magnitude (a.u.)       :      1.49404
Magnitude (Debye)      :      3.79755

                             ****ORCA TERMINATED NORMALLY****
TOTAL RUN TIME: 0 days 0 hours 0 minutes 5 seconds 126 msec
