                         Program Version 3.0.3 - RELEASE   -
|  1> ! RI PBE def2-SVP def2-SVP/J NBO PAL2
|  2> % maxcore 2000
|  3> % output
|  4>     # printlevel mini
|  5>     print[ P_Basis ] 0
|  6>     print[ P_SCFInfo ] 1
|  7>     print[ P_SCFIterInfo ] 1
|  8>     print[ P_OrbEn ] 0
|  9>     print[ P_Cartesian ] 0
| 10> end
| 11> *xyz 0 1
| 12>  N        2.1036490000    -1.5694430000     0.3782270000
| 13>  C        2.4287240000    -0.2708760000     0.5738930000
| 14>  O        2.0965210000     0.3568610000     1.5587920000
| 15>  C        3.2487840000     0.3646890000    -0.5369440000
| 16>  C        4.7441740000     0.1329990000    -0.3654200000
| 17>  C        5.2400540000    -1.2136690000    -0.7908240000
| 18>  O        4.5568070000    -2.0943840000    -1.2448450000
| 19>  H        1.6489550000    -2.0572670000     1.1311880000
| 20>  H        2.5574540000    -2.0946900000    -0.3518670000
| 21>  H        3.0420090000     1.4333460000    -0.4915950000
| 22>  H        2.9321930000    -0.0103730000    -1.5133140000
| 23>  H        5.0623030000     0.2950820000     0.6726590000
| 24>  H        5.3220350000     0.8635900000    -0.9474130000
| 25>  H        6.3340290000    -1.3638650000    -0.6757450000
| 26> *
| 27>
| 28>                          ****END OF INPUT****
 Total Charge           Charge          ....    0
 Multiplicity           Mult            ....    1
 Number of Electrons    NEL             ....   54
 Basis Dimension        Dim             ....  133

MULLIKEN ATOMIC CHARGES
-----------------------
   0 N :   -0.045169
   1 C :   -0.047152
   2 O :   -0.209654
   3 C :    0.020951
   4 C :   -0.017406
   5 C :    0.082454
   6 O :   -0.176928
   7 H :    0.113818
   8 H :    0.111276
   9 H :    0.026853
  10 H :    0.024000
  11 H :    0.053073
  12 H :    0.053007
  13 H :    0.010878
Sum of atomic charges:   -0.0000000

LOEWDIN ATOMIC CHARGES
----------------------
   0 N :    0.013928
   1 C :    0.020810
   2 O :   -0.198483
   3 C :   -0.063306
   4 C :   -0.074699
   5 C :    0.100985
   6 O :   -0.114577
   7 H :    0.071292
   8 H :    0.059917
   9 H :    0.044159
  10 H :    0.031231
  11 H :    0.055151
  12 H :    0.055759
  13 H :   -0.002166

  Mayer bond orders larger than 0.1
B(  0-N ,  1-C ) :   1.2722 B(  0-N ,  7-H ) :   0.9395 B(  0-N ,  8-H ) :   0.9162
B(  1-C ,  2-O ) :   2.1162 B(  1-C ,  3-C ) :   0.9643 B(  3-C ,  4-C ) :   1.0915
B(  3-C ,  9-H ) :   0.9071 B(  3-C , 10-H ) :   0.9248 B(  4-C ,  5-C ) :   0.9837
B(  4-C , 11-H ) :   0.8994 B(  4-C , 12-H ) :   0.9006 B(  5-C ,  6-O ) :   2.1139
B(  5-C , 13-H ) :   0.9271

FINAL SINGLE POINT ENERGY      -361.162606822230

DIPOLE MOMENT
-------------
                                X             Y             Z
Electronic contribution:     -1.56845      -1.68391       1.13141
Nuclear contribution   :      2.41598       1.43089      -1.68764
                        -----------------------------------------
Total Dipole Moment    :      0.84753      -0.25303      -0.55623
                        -----------------------------------------
Magnitude (a.u.)       :      1.04486
Magnitude (Debye)      :      2.65581

                             ****ORCA TERMINATED NORMALLY****
TOTAL RUN TIME: 0 days 0 hours 0 minutes 6 seconds 632 msec
