                         Program Version 3.0.3 - RELEASE   -
|  1> ! RI PBE def2-SVP def2-SVP/J NBO PAL2
|  2> % maxcore 2000
|  3> % output
|  4>     # printlevel mini
|  5>     print[ P_Basis ] 0
|  6>     print[ P_SCFInfo ] 1
|  7>     print[ P_SCFIterInfo ] 1
|  8>     print[ P_OrbEn ] 0
|  9>     print[ P_Cartesian ] 0
| 10> end
| 11> *xyz 0 1
| 12>  N        3.0988510000     0.9232990000     0.7884370000
| 13>  C        2.3593550000     0.0956430000     0.0237620000
| 14>  O        1.1938720000     0.2820140000    -0.2572250000
| 15>  C        3.0938030000    -1.1471970000    -0.4536860000
| 16>  N        4.5317440000    -1.0451100000    -0.3326430000
| 17>  C        5.3013600000    -2.0400090000    -1.0493310000
| 18>  C        5.2466740000    -0.6428090000    -1.5306020000
| 19>  H        2.6698730000     1.7436670000     1.1780430000
| 20>  H        4.0532500000     0.6809370000     0.9950920000
| 21>  H        2.7524560000    -1.3499200000    -1.4785600000
| 22>  H        2.7447530000    -1.9753350000     0.1720510000
| 23>  H        4.7516770000    -2.7831760000    -1.6209390000
| 24>  H        6.1848930000    -2.4105860000    -0.5417480000
| 25>  H        4.6572410000    -0.4439660000    -2.4217190000
| 26>  H        6.0906070000     0.0205360000    -1.3785240000
| 27> *
| 28>
| 29>                          ****END OF INPUT****
 Total Charge           Charge          ....    0
 Multiplicity           Mult            ....    1
 Number of Electrons    NEL             ....   54
 Basis Dimension        Dim             ....  138

MULLIKEN ATOMIC CHARGES
-----------------------
   0 N :   -0.041560
   1 C :   -0.049441
   2 O :   -0.211954
   3 C :    0.124465
   4 N :   -0.323717
   5 C :    0.037307
   6 C :    0.029454
   7 H :    0.113603
   8 H :    0.115132
   9 H :    0.008977
  10 H :    0.044671
  11 H :    0.032402
  12 H :    0.040005
  13 H :    0.037764
  14 H :    0.042892
Sum of atomic charges:    0.0000000

LOEWDIN ATOMIC CHARGES
----------------------
   0 N :    0.019538
   1 C :    0.011033
   2 O :   -0.199980
   3 C :   -0.010897
   4 N :   -0.118189
   5 C :    0.010469
   6 C :    0.006304
   7 H :    0.071460
   8 H :    0.065113
   9 H :    0.019685
  10 H :    0.042788
  11 H :    0.018425
  12 H :    0.023234
  13 H :    0.018456
  14 H :    0.022563

  Mayer bond orders larger than 0.1
B(  0-N ,  1-C ) :   1.3033 B(  0-N ,  2-O ) :   0.1011 B(  0-N ,  7-H ) :   0.9394
B(  0-N ,  8-H ) :   0.9136 B(  1-C ,  2-O ) :   2.1081 B(  1-C ,  3-C ) :   0.9368
B(  3-C ,  4-N ) :   1.0109 B(  3-C ,  9-H ) :   0.9065 B(  3-C , 10-H ) :   0.9165
B(  4-N ,  5-C ) :   0.9719 B(  4-N ,  6-C ) :   0.9415 B(  5-C ,  6-C ) :   1.0929
B(  5-C , 11-H ) :   0.9357 B(  5-C , 12-H ) :   0.9497 B(  6-C , 13-H ) :   0.9357
B(  6-C , 14-H ) :   0.9519

FINAL SINGLE POINT ENERGY      -341.278584640021

DIPOLE MOMENT
-------------
                                X             Y             Z
Electronic contribution:     -4.03492       2.31278       1.94380
Nuclear contribution   :      5.36424      -2.45430      -1.84744
                        -----------------------------------------
Total Dipole Moment    :      1.32932      -0.14152       0.09637
                        -----------------------------------------
Magnitude (a.u.)       :      1.34030
Magnitude (Debye)      :      3.40678

                             ****ORCA TERMINATED NORMALLY****
TOTAL RUN TIME: 0 days 0 hours 0 minutes 6 seconds 844 msec
