                         Program Version 3.0.3 - RELEASE   -
|  1> ! RI PBE def2-SVP def2-SVP/J NBO PAL2
|  2> % maxcore 2000
|  3> % output
|  4>     # printlevel mini
|  5>     print[ P_Basis ] 0
|  6>     print[ P_SCFInfo ] 1
|  7>     print[ P_SCFIterInfo ] 1
|  8>     print[ P_OrbEn ] 0
|  9>     print[ P_Cartesian ] 0
| 10> end
| 11> *xyz 0 1
| 12>  N        3.3693770000    -1.9696710000    -0.5467330000
| 13>  C        3.9244120000    -0.7601360000    -0.7093270000
| 14>  O        3.9051910000    -0.0974820000    -1.7252530000
| 15>  C        4.6253240000    -0.2598150000     0.5701510000
| 16>  O        4.6224820000    -0.9500220000     1.5645440000
| 17>  C        5.2592220000     1.0645440000     0.4680310000
| 18>  C        5.8908800000     1.5935380000     1.5113240000
| 19>  H        2.8823560000    -2.4059060000    -1.3089130000
| 20>  H        3.4528010000    -2.4228030000     0.3479350000
| 21>  H        5.1795210000     1.5668490000    -0.4878530000
| 22>  H        5.9453450000     1.0526660000     2.4507480000
| 23>  H        6.3637910000     2.5667370000     1.4563560000
| 24> *
| 25>
| 26>                          ****END OF INPUT****
 Total Charge           Charge          ....    0
 Multiplicity           Mult            ....    1
 Number of Electrons    NEL             ....   52
 Basis Dimension        Dim             ....  123

MULLIKEN ATOMIC CHARGES
-----------------------
   0 N :   -0.015632
   1 C :   -0.020089
   2 O :   -0.176993
   3 C :    0.023676
   4 O :   -0.159134
   5 C :   -0.056616
   6 C :    0.044439
   7 H :    0.121317
   8 H :    0.124047
   9 H :    0.028399
  10 H :    0.044532
  11 H :    0.042053
Sum of atomic charges:    0.0000000

LOEWDIN ATOMIC CHARGES
----------------------
   0 N :    0.039972
   1 C :   -0.011531
   2 O :   -0.171861
   3 C :    0.028551
   4 O :   -0.114794
   5 C :   -0.063131
   6 C :    0.035457
   7 H :    0.078205
   8 H :    0.074668
   9 H :    0.038020
  10 H :    0.032458
  11 H :    0.033985

  Mayer bond orders larger than 0.1
B(  0-N ,  1-C ) :   1.3362 B(  0-N ,  2-O ) :   0.1235 B(  0-N ,  7-H ) :   0.9323
B(  0-N ,  8-H ) :   0.9129 B(  1-C ,  2-O ) :   2.1057 B(  1-C ,  3-C ) :   0.7955
B(  3-C ,  4-O ) :   2.1179 B(  3-C ,  5-C ) :   1.0294 B(  5-C ,  6-C ) :   1.8982
B(  5-C ,  9-H ) :   0.9492 B(  6-C , 10-H ) :   0.9312 B(  6-C , 11-H ) :   0.9417

FINAL SINGLE POINT ENERGY      -359.948125940726

DIPOLE MOMENT
-------------
                                X             Y             Z
Electronic contribution:     -1.37084      -1.81188      -1.30107
Nuclear contribution   :      1.30708       1.46865       1.61644
                        -----------------------------------------
Total Dipole Moment    :     -0.06376      -0.34323       0.31537
                        -----------------------------------------
Magnitude (a.u.)       :      0.47046
Magnitude (Debye)      :      1.19582

                             ****ORCA TERMINATED NORMALLY****
TOTAL RUN TIME: 0 days 0 hours 0 minutes 5 seconds 503 msec
