                         Program Version 3.0.3 - RELEASE   -
|  1> ! RI PBE def2-SVP def2-SVP/J NBO PAL2
|  2> % maxcore 2000
|  3> % output
|  4>     # printlevel mini
|  5>     print[ P_Basis ] 0
|  6>     print[ P_SCFInfo ] 1
|  7>     print[ P_SCFIterInfo ] 1
|  8>     print[ P_OrbEn ] 0
|  9>     print[ P_Cartesian ] 0
| 10> end
| 11> *xyz 0 1
| 12>  N        1.2111340000     0.5092530000     0.0601070000
| 13>  C        2.1421740000    -0.4412660000     0.2310240000
| 14>  O        2.5692980000    -0.8535860000     1.2840240000
| 15>  C        2.6482770000    -0.9932420000    -1.1161940000
| 16>  O        2.2179100000    -0.5764770000    -2.1644960000
| 17>  C        3.6511180000    -2.0206050000    -1.0256110000
| 18>  C        4.4888050000    -2.8794630000    -0.9732430000
| 19>  H        0.7989450000     0.9531120000     0.8612450000
| 20>  H        0.9388740000     0.7672320000    -0.8735360000
| 21>  H        5.2320740000    -3.6413590000    -0.9226980000
| 22> *
| 23>
| 24>                          ****END OF INPUT****
 Total Charge           Charge          ....    0
 Multiplicity           Mult            ....    1
 Number of Electrons    NEL             ....   50
 Basis Dimension        Dim             ....  113

MULLIKEN ATOMIC CHARGES
-----------------------
   0 N :   -0.019294
   1 C :   -0.013956
   2 O :   -0.152845
   3 C :    0.011186
   4 O :   -0.138533
   5 C :    0.423831
   6 C :   -0.384892
   7 H :    0.123672
   8 H :    0.124556
   9 H :    0.026275
Sum of atomic charges:   -0.0000000

LOEWDIN ATOMIC CHARGES
----------------------
   0 N :    0.040618
   1 C :   -0.011844
   2 O :   -0.157216
   3 C :    0.018290
   4 O :   -0.085700
   5 C :   -0.026613
   6 C :    0.020214
   7 H :    0.080675
   8 H :    0.075403
   9 H :    0.046173

  Mayer bond orders larger than 0.1
B(  0-N ,  1-C ) :   1.3240 B(  0-N ,  2-O ) :   0.1258 B(  0-N ,  7-H ) :   0.9346
B(  0-N ,  8-H ) :   0.9153 B(  1-C ,  2-O ) :   2.1510 B(  1-C ,  3-C ) :   0.7933
B(  3-C ,  4-O ) :   2.1172 B(  3-C ,  5-C ) :   0.9063 B(  4-O ,  6-C ) :   0.1160
B(  5-C ,  6-C ) :   2.2877 B(  5-C ,  9-H ) :  -0.1000 B(  6-C ,  9-H ) :   1.0880

FINAL SINGLE POINT ENERGY      -358.693101503983

DIPOLE MOMENT
-------------
                                X             Y             Z
Electronic contribution:      0.62778      -0.66093      -0.68493
Nuclear contribution   :     -0.89521       0.93198       0.54347
                        -----------------------------------------
Total Dipole Moment    :     -0.26743       0.27105      -0.14146
                        -----------------------------------------
Magnitude (a.u.)       :      0.40620
Magnitude (Debye)      :      1.03249

                             ****ORCA TERMINATED NORMALLY****
TOTAL RUN TIME: 0 days 0 hours 0 minutes 4 seconds 923 msec
