                         Program Version 3.0.3 - RELEASE   -
|  1> ! RI PBE def2-SVP def2-SVP/J NBO PAL2
|  2> % maxcore 2000
|  3> % output
|  4>     # printlevel mini
|  5>     print[ P_Basis ] 0
|  6>     print[ P_SCFInfo ] 1
|  7>     print[ P_SCFIterInfo ] 1
|  8>     print[ P_OrbEn ] 0
|  9>     print[ P_Cartesian ] 0
| 10> end
| 11> *xyz 0 1
| 12>  N        1.1408070000    -0.4385820000     0.0542590000
| 13>  C        2.4035510000    -0.1693460000    -0.3272100000
| 14>  O        2.9762070000    -0.7123450000    -1.2478090000
| 15>  C        3.0912270000     0.9348040000     0.4923230000
| 16>  O        2.3170910000     1.3853930000     1.5794070000
| 17>  C        4.4759470000     0.5059360000     0.8638970000
| 18>  C        5.0662890000     0.7932040000     2.0150480000
| 19>  H        0.5983260000    -1.0864050000    -0.4895790000
| 20>  H        0.7074440000     0.1293360000     0.7611260000
| 21>  H        3.1639780000     1.7813460000    -0.2041790000
| 22>  H        2.5662100000     0.8590460000     2.3469740000
| 23>  H        4.9780040000    -0.0861330000     0.1059080000
| 24>  H        4.5934110000     1.4095750000     2.7732910000
| 25>  H        6.0656080000     0.4363910000     2.2317530000
| 26> *
| 27>
| 28>                          ****END OF INPUT****
 Total Charge           Charge          ....    0
 Multiplicity           Mult            ....    1
 Number of Electrons    NEL             ....   54
 Basis Dimension        Dim             ....  133

MULLIKEN ATOMIC CHARGES
-----------------------
   0 N :   -0.035183
   1 C :   -0.046803
   2 O :   -0.206260
   3 C :    0.163048
   4 O :   -0.264814
   5 C :   -0.092557
   6 C :   -0.046738
   7 H :    0.119049
   8 H :    0.109967
   9 H :    0.058428
  10 H :    0.158004
  11 H :    0.033231
  12 H :    0.015382
  13 H :    0.035245
Sum of atomic charges:   -0.0000000

LOEWDIN ATOMIC CHARGES
----------------------
   0 N :    0.023795
   1 C :    0.008123
   2 O :   -0.193416
   3 C :    0.014599
   4 O :   -0.096602
   5 C :   -0.032824
   6 C :   -0.071068
   7 H :    0.074586
   8 H :    0.064563
   9 H :    0.053670
  10 H :    0.068345
  11 H :    0.037796
  12 H :    0.017475
  13 H :    0.030958

  Mayer bond orders larger than 0.1
B(  0-N ,  1-C ) :   1.3163 B(  0-N ,  2-O ) :   0.1028 B(  0-N ,  7-H ) :   0.9388
B(  0-N ,  8-H ) :   0.9158 B(  1-C ,  2-O ) :   2.0781 B(  1-C ,  3-C ) :   0.8520
B(  3-C ,  4-O ) :   1.0793 B(  3-C ,  5-C ) :   1.0289 B(  3-C ,  9-H ) :   0.8699
B(  4-O , 10-H ) :   0.9644 B(  5-C ,  6-C ) :   1.9894 B(  5-C , 11-H ) :   0.9438
B(  6-C , 12-H ) :   0.9392 B(  6-C , 13-H ) :   0.9435

FINAL SINGLE POINT ENERGY      -361.136691127313

DIPOLE MOMENT
-------------
                                X             Y             Z
Electronic contribution:     -2.15900      -1.03718      -2.89668
Nuclear contribution   :      1.49560       1.08983       3.78627
                        -----------------------------------------
Total Dipole Moment    :     -0.66340       0.05265       0.88959
                        -----------------------------------------
Magnitude (a.u.)       :      1.11097
Magnitude (Debye)      :      2.82386

                             ****ORCA TERMINATED NORMALLY****
TOTAL RUN TIME: 0 days 0 hours 0 minutes 6 seconds 618 msec
