                         Program Version 3.0.3 - RELEASE   -
|  1> ! RI PBE def2-SVP def2-SVP/J NBO PAL2
|  2> % maxcore 2000
|  3> % output
|  4>     # printlevel mini
|  5>     print[ P_Basis ] 0
|  6>     print[ P_SCFInfo ] 1
|  7>     print[ P_SCFIterInfo ] 1
|  8>     print[ P_OrbEn ] 0
|  9>     print[ P_Cartesian ] 0
| 10> end
| 11> *xyz 0 1
| 12>  N        1.4795850000    -0.4023350000    -0.1079480000
| 13>  C        2.4996560000     0.2680330000    -0.6687780000
| 14>  O        2.8443690000     0.1855960000    -1.8242990000
| 15>  C        3.2529400000     1.1960500000     0.3040610000
| 16>  O        2.4873790000     1.3963490000     1.4798190000
| 17>  C        4.5682580000     0.6455070000     0.5990740000
| 18>  C        5.6473410000     0.2094700000     0.8897760000
| 19>  H        0.9156530000    -0.9989520000    -0.6870330000
| 20>  H        1.2221560000    -0.2113910000     0.8446190000
| 21>  H        3.3772440000     2.1404980000    -0.2405940000
| 22>  H        3.0905140000     1.5873350000     2.2030260000
| 23>  H        6.6064050000    -0.1847480000     1.1313670000
| 24> *
| 25>
| 26>                          ****END OF INPUT****
 Total Charge           Charge          ....    0
 Multiplicity           Mult            ....    1
 Number of Electrons    NEL             ....   52
 Basis Dimension        Dim             ....  123

MULLIKEN ATOMIC CHARGES
-----------------------
   0 N :   -0.036235
   1 C :   -0.021504
   2 O :   -0.194427
   3 C :    0.172536
   4 O :   -0.256846
   5 C :    0.341939
   6 C :   -0.471670
   7 H :    0.120501
   8 H :    0.120286
   9 H :    0.047119
  10 H :    0.169275
  11 H :    0.009026
Sum of atomic charges:   -0.0000000

LOEWDIN ATOMIC CHARGES
----------------------
   0 N :    0.029250
   1 C :    0.018768
   2 O :   -0.181173
   3 C :    0.019427
   4 O :   -0.102664
   5 C :   -0.036994
   6 C :   -0.055563
   7 H :    0.076435
   8 H :    0.068762
   9 H :    0.045416
  10 H :    0.078760
  11 H :    0.039578

  Mayer bond orders larger than 0.1
B(  0-N ,  1-C ) :   1.2977 B(  0-N ,  2-O ) :   0.1049 B(  0-N ,  7-H ) :   0.9391
B(  0-N ,  8-H ) :   0.9170 B(  1-C ,  2-O ) :   2.1275 B(  1-C ,  3-C ) :   0.8595
B(  3-C ,  4-O ) :   1.0807 B(  3-C ,  5-C ) :   0.9897 B(  3-C ,  9-H ) :   0.8809
B(  4-O , 10-H ) :   0.9652 B(  5-C ,  6-C ) :   2.3634 B(  5-C , 11-H ) :  -0.1066
B(  6-C , 11-H ) :   1.0968

FINAL SINGLE POINT ENERGY      -359.885469346567

DIPOLE MOMENT
-------------
                                X             Y             Z
Electronic contribution:      0.33791       0.08974      -1.28177
Nuclear contribution   :     -0.57715      -0.16927       2.57938
                        -----------------------------------------
Total Dipole Moment    :     -0.23923      -0.07952       1.29761
                        -----------------------------------------
Magnitude (a.u.)       :      1.32187
Magnitude (Debye)      :      3.35994

                             ****ORCA TERMINATED NORMALLY****
TOTAL RUN TIME: 0 days 0 hours 0 minutes 5 seconds 660 msec
