                         Program Version 3.0.3 - RELEASE   -
|  1> ! RI PBE def2-SVP def2-SVP/J NBO PAL2
|  2> % maxcore 2000
|  3> % output
|  4>     # printlevel mini
|  5>     print[ P_Basis ] 0
|  6>     print[ P_SCFInfo ] 1
|  7>     print[ P_SCFIterInfo ] 1
|  8>     print[ P_OrbEn ] 0
|  9>     print[ P_Cartesian ] 0
| 10> end
| 11> *xyz 0 1
| 12>  N        0.1013060000     0.7346180000     0.2713930000
| 13>  C        0.7596450000    -0.0481300000    -0.6039870000
| 14>  O        0.2874190000    -0.4754100000    -1.6353120000
| 15>  C        2.1879680000    -0.3945930000    -0.2344330000
| 16>  O        2.5579420000     0.1900600000     0.9928320000
| 17>  C        3.8134530000    -0.0485260000     1.4284100000
| 18>  C        4.7547240000    -0.7745050000     0.8369860000
| 19>  H       -0.8488180000     0.9909100000     0.0690240000
| 20>  H        0.5510630000     1.0557410000     1.1096840000
| 21>  H        2.8374180000    -0.0455470000    -1.0450140000
| 22>  H        2.2656860000    -1.4865170000    -0.1861870000
| 23>  H        3.9807720000     0.4502360000     2.3766620000
| 24>  H        4.6162180000    -1.2824050000    -0.1074170000
| 25>  H        5.7163140000    -0.8671350000     1.3217590000
| 26> *
| 27>
| 28>                          ****END OF INPUT****
 Total Charge           Charge          ....    0
 Multiplicity           Mult            ....    1
 Number of Electrons    NEL             ....   54
 Basis Dimension        Dim             ....  133

MULLIKEN ATOMIC CHARGES
-----------------------
   0 N :   -0.040974
   1 C :   -0.048155
   2 O :   -0.211753
   3 C :    0.156726
   4 O :   -0.283538
   5 C :    0.117215
   6 C :   -0.113501
   7 H :    0.121231
   8 H :    0.118359
   9 H :    0.051374
  10 H :    0.052957
  11 H :    0.012378
  12 H :    0.037170
  13 H :    0.030512
Sum of atomic charges:   -0.0000000

LOEWDIN ATOMIC CHARGES
----------------------
   0 N :    0.023843
   1 C :    0.009675
   2 O :   -0.192882
   3 C :    0.044088
   4 O :   -0.075889
   5 C :    0.034478
   6 C :   -0.145968
   7 H :    0.075971
   8 H :    0.069173
   9 H :    0.035722
  10 H :    0.035824
  11 H :    0.024189
  12 H :    0.026540
  13 H :    0.035235

  Mayer bond orders larger than 0.1
B(  0-N ,  1-C ) :   1.2979 B(  0-N ,  2-O ) :   0.1031 B(  0-N ,  7-H ) :   0.9381
B(  0-N ,  8-H ) :   0.9229 B(  1-C ,  2-O ) :   2.0978 B(  1-C ,  3-C ) :   0.9351
B(  3-C ,  4-O ) :   0.9642 B(  3-C ,  9-H ) :   0.9221 B(  3-C , 10-H ) :   0.9236
B(  4-O ,  5-C ) :   1.1271 B(  5-C ,  6-C ) :   1.8780 B(  5-C , 11-H ) :   0.9642
B(  6-C , 12-H ) :   0.9511 B(  6-C , 13-H ) :   0.9362

FINAL SINGLE POINT ENERGY      -361.132462436825

DIPOLE MOMENT
-------------
                                X             Y             Z
Electronic contribution:     -4.41344       0.94172      -1.35882
Nuclear contribution   :      4.62319      -0.41470       2.38259
                        -----------------------------------------
Total Dipole Moment    :      0.20975       0.52701       1.02377
                        -----------------------------------------
Magnitude (a.u.)       :      1.17040
Magnitude (Debye)      :      2.97493

                             ****ORCA TERMINATED NORMALLY****
TOTAL RUN TIME: 0 days 0 hours 0 minutes 6 seconds 480 msec
