                         Program Version 3.0.3 - RELEASE   -
|  1> ! RI PBE def2-SVP def2-SVP/J NBO PAL2
|  2> % maxcore 2000
|  3> % output
|  4>     # printlevel mini
|  5>     print[ P_Basis ] 0
|  6>     print[ P_SCFInfo ] 1
|  7>     print[ P_SCFIterInfo ] 1
|  8>     print[ P_OrbEn ] 0
|  9>     print[ P_Cartesian ] 0
| 10> end
| 11> *xyz 0 1
| 12>  N        1.1613210000     0.1104200000     0.1005700000
| 13>  C        2.5259810000     0.0137760000     0.0856900000
| 14>  O        3.1136610000    -1.0485640000    -0.0143700000
| 15>  N        3.1804350000     1.1969220000     0.1911050000
| 16>  C        2.7803990000     2.5847340000     0.3201690000
| 17>  C        4.2797240000     2.9579110000     0.3473380000
| 18>  C        4.6055140000     1.4515040000     0.2081300000
| 19>  H        0.6422100000    -0.7433340000     0.0245590000
| 20>  H        0.6720670000     0.9806450000     0.1824340000
| 21>  H        2.2280590000     2.8137860000     1.2393640000
| 22>  H        2.2196490000     2.9766050000    -0.5368310000
| 23>  H        4.6147660000     3.4113630000     1.2782990000
| 24>  H        4.6064900000     3.5727770000    -0.4891600000
| 25>  H        5.1265180000     0.9989940000     1.0562640000
| 26>  H        5.1188170000     1.1606910000    -0.7124530000
| 27> *
| 28>
| 29>                          ****END OF INPUT****
 Total Charge           Charge          ....    0
 Multiplicity           Mult            ....    1
 Number of Electrons    NEL             ....   54
 Basis Dimension        Dim             ....  138

MULLIKEN ATOMIC CHARGES
-----------------------
   0 N :   -0.116351
   1 C :    0.082439
   2 O :   -0.241771
   3 N :   -0.329931
   4 C :    0.152363
   5 C :   -0.103104
   6 C :    0.181829
   7 H :    0.122754
   8 H :    0.101892
   9 H :    0.018107
  10 H :    0.018888
  11 H :    0.028600
  12 H :    0.032161
  13 H :    0.026502
  14 H :    0.025620
Sum of atomic charges:    0.0000000

LOEWDIN ATOMIC CHARGES
----------------------
   0 N :   -0.022057
   1 C :    0.010410
   2 O :   -0.236002
   3 N :   -0.068236
   4 C :    0.035915
   5 C :   -0.033282
   6 C :    0.055616
   7 H :    0.074639
   8 H :    0.062644
   9 H :    0.012269
  10 H :    0.012389
  11 H :    0.028124
  12 H :    0.028836
  13 H :    0.019565
  14 H :    0.019172

  Mayer bond orders larger than 0.1
B(  0-N ,  1-C ) :   1.1780 B(  0-N ,  7-H ) :   0.9458 B(  0-N ,  8-H ) :   0.9440
B(  1-C ,  2-O ) :   2.0700 B(  1-C ,  3-N ) :   1.0896 B(  3-N ,  4-C ) :   1.0108
B(  3-N ,  6-C ) :   1.0075 B(  4-C ,  5-C ) :   1.1233 B(  4-C ,  9-H ) :   0.9299
B(  4-C , 10-H ) :   0.9297 B(  5-C ,  6-C ) :   1.1093 B(  5-C , 11-H ) :   0.9310
B(  5-C , 12-H ) :   0.9303 B(  6-C , 13-H ) :   0.9414 B(  6-C , 14-H ) :   0.9419

FINAL SINGLE POINT ENERGY      -341.301832420408

DIPOLE MOMENT
-------------
                                X             Y             Z
Electronic contribution:     -1.35343      -5.15059      -0.46511
Nuclear contribution   :      0.68231       6.62785       0.60417
                        -----------------------------------------
Total Dipole Moment    :     -0.67112       1.47726       0.13906
                        -----------------------------------------
Magnitude (a.u.)       :      1.62851
Magnitude (Debye)      :      4.13934

                             ****ORCA TERMINATED NORMALLY****
TOTAL RUN TIME: 0 days 0 hours 0 minutes 6 seconds 134 msec
