                         Program Version 3.0.3 - RELEASE   -
|  1> ! RI PBE def2-SVP def2-SVP/J NBO PAL2
|  2> % maxcore 2000
|  3> % output
|  4>     # printlevel mini
|  5>     print[ P_Basis ] 0
|  6>     print[ P_SCFInfo ] 1
|  7>     print[ P_SCFIterInfo ] 1
|  8>     print[ P_OrbEn ] 0
|  9>     print[ P_Cartesian ] 0
| 10> end
| 11> *xyz 0 1
| 12>  N        2.1863480000    -0.5239720000    -2.2547670000
| 13>  C        2.0732160000    -0.2074360000    -0.9278740000
| 14>  O        1.0098500000     0.0386890000    -0.3944230000
| 15>  N        3.2572410000    -0.2030460000    -0.2269420000
| 16>  C        4.4771080000    -0.7582320000    -0.6986480000
| 17>  C        5.3437240000     0.0638920000    -1.6158110000
| 18>  C        5.7482310000    -0.1607800000    -0.1929860000
| 19>  H        1.3689040000    -0.3260720000    -2.8040770000
| 20>  H        3.0806420000    -0.4536440000    -2.7080800000
| 21>  H        3.1109640000    -0.1610030000     0.7687380000
| 22>  H        4.4822380000    -1.8331330000    -0.8703150000
| 23>  H        4.9830900000     1.0517880000    -1.8743470000
| 24>  H        5.8930910000    -0.4494470000    -2.3954000000
| 25>  H        5.6598840000     0.6786890000     0.4850810000
| 26>  H        6.5737880000    -0.8295910000     0.0123630000
| 27> *
| 28>
| 29>                          ****END OF INPUT****
 Total Charge           Charge          ....    0
 Multiplicity           Mult            ....    1
 Number of Electrons    NEL             ....   54
 Basis Dimension        Dim             ....  138

MULLIKEN ATOMIC CHARGES
-----------------------
   0 N :   -0.104513
   1 C :    0.029209
   2 O :   -0.223535
   3 N :   -0.114579
   4 C :   -0.095826
   5 C :   -0.034052
   6 C :   -0.027060
   7 H :    0.121287
   8 H :    0.105139
   9 H :    0.125819
  10 H :    0.041866
  11 H :    0.044201
  12 H :    0.043054
  13 H :    0.045864
  14 H :    0.043127
Sum of atomic charges:   -0.0000000

LOEWDIN ATOMIC CHARGES
----------------------
   0 N :   -0.020884
   1 C :    0.016511
   2 O :   -0.228526
   3 N :   -0.025287
   4 C :   -0.008150
   5 C :   -0.055333
   6 C :   -0.039759
   7 H :    0.075552
   8 H :    0.064161
   9 H :    0.077854
  10 H :    0.018939
  11 H :    0.030821
  12 H :    0.029032
  13 H :    0.033116
  14 H :    0.031953

  Mayer bond orders larger than 0.1
B(  0-N ,  1-C ) :   1.1770 B(  0-N ,  7-H ) :   0.9468 B(  0-N ,  8-H ) :   0.9358
B(  1-C ,  2-O ) :   2.1086 B(  1-C ,  3-N ) :   1.1030 B(  3-N ,  4-C ) :   1.0606
B(  3-N ,  9-H ) :   0.9219 B(  4-C ,  5-C ) :   0.9763 B(  4-C ,  6-C ) :   0.9943
B(  4-C , 10-H ) :   0.9389 B(  5-C ,  6-C ) :   1.0430 B(  5-C , 11-H ) :   0.9425
B(  5-C , 12-H ) :   0.9475 B(  6-C , 13-H ) :   0.9509 B(  6-C , 14-H ) :   0.9439

FINAL SINGLE POINT ENERGY      -341.306246129793

DIPOLE MOMENT
-------------
                                X             Y             Z
Electronic contribution:     -6.06567       0.13474       1.29110
Nuclear contribution   :      7.46861      -0.32673      -1.92038
                        -----------------------------------------
Total Dipole Moment    :      1.40294      -0.19199      -0.62928
                        -----------------------------------------
Magnitude (a.u.)       :      1.54955
Magnitude (Debye)      :      3.93864

                             ****ORCA TERMINATED NORMALLY****
TOTAL RUN TIME: 0 days 0 hours 0 minutes 6 seconds 850 msec
