                         Program Version 3.0.3 - RELEASE   -
|  1> ! RI PBE def2-SVP def2-SVP/J NBO PAL2
|  2> % maxcore 2000
|  3> % output
|  4>     # printlevel mini
|  5>     print[ P_Basis ] 0
|  6>     print[ P_SCFInfo ] 1
|  7>     print[ P_SCFIterInfo ] 1
|  8>     print[ P_OrbEn ] 0
|  9>     print[ P_Cartesian ] 0
| 10> end
| 11> *xyz 0 1
| 12>  N        2.6054960000     2.9124890000     4.1009380000
| 13>  C        3.1006350000     2.0264220000     3.1656690000
| 14>  O        2.3784140000     1.3137860000     2.4988970000
| 15>  N        4.4648550000     2.0417170000     3.0486930000
| 16>  C        5.1283030000     1.3041230000     1.9979670000
| 17>  C        6.4081300000     0.7053130000     2.4797450000
| 18>  C        7.5905280000     0.9228390000     1.9220760000
| 19>  H        1.6374040000     2.7482050000     4.3211610000
| 20>  H        3.1837860000     3.1426710000     4.8918640000
| 21>  H        4.9642980000     2.8205660000     3.4439940000
| 22>  H        5.3150020000     1.9338890000     1.1191870000
| 23>  H        4.4256740000     0.5250180000     1.6909650000
| 24>  H        6.3264130000     0.0523620000     3.3461210000
| 25>  H        7.6962800000     1.5754240000     1.0604660000
| 26>  H        8.4918000000     0.4506760000     2.2950550000
| 27> *
| 28>
| 29>                          ****END OF INPUT****
 Total Charge           Charge          ....    0
 Multiplicity           Mult            ....    1
 Number of Electrons    NEL             ....   54
 Basis Dimension        Dim             ....  138

MULLIKEN ATOMIC CHARGES
-----------------------
   0 N :   -0.108518
   1 C :    0.049535
   2 O :   -0.234557
   3 N :   -0.197801
   4 C :    0.203850
   5 C :   -0.120998
   6 C :   -0.031763
   7 H :    0.121392
   8 H :    0.104272
   9 H :    0.104667
  10 H :    0.008630
  11 H :    0.043626
  12 H :    0.010198
  13 H :    0.020208
  14 H :    0.027259
Sum of atomic charges:    0.0000000

LOEWDIN ATOMIC CHARGES
----------------------
   0 N :   -0.034774
   1 C :    0.018645
   2 O :   -0.218925
   3 N :   -0.032020
   4 C :    0.027972
   5 C :   -0.043587
   6 C :   -0.061424
   7 H :    0.074440
   8 H :    0.063836
   9 H :    0.066060
  10 H :    0.020316
  11 H :    0.043870
  12 H :    0.027430
  13 H :    0.022155
  14 H :    0.026007

  Mayer bond orders larger than 0.1
B(  0-N ,  1-C ) :   1.1585 B(  0-N ,  7-H ) :   0.9488 B(  0-N ,  8-H ) :   0.9473
B(  1-C ,  2-O ) :   2.0438 B(  1-C ,  3-N ) :   1.1393 B(  3-N ,  4-C ) :   0.9690
B(  3-N ,  9-H ) :   0.9280 B(  4-C ,  5-C ) :   1.0693 B(  4-C , 10-H ) :   0.9322
B(  4-C , 11-H ) :   0.8961 B(  5-C ,  6-C ) :   1.9859 B(  5-C , 12-H ) :   0.9617
B(  6-C , 13-H ) :   0.9484 B(  6-C , 14-H ) :   0.9450

FINAL SINGLE POINT ENERGY      -341.307500833338

DIPOLE MOMENT
-------------
                                X             Y             Z
Electronic contribution:     -5.19074       0.52294       0.93374
Nuclear contribution   :      5.93400       0.19083       0.01113
                        -----------------------------------------
Total Dipole Moment    :      0.74325       0.71376       0.94488
                        -----------------------------------------
Magnitude (a.u.)       :      1.39810
Magnitude (Debye)      :      3.55368

                             ****ORCA TERMINATED NORMALLY****
TOTAL RUN TIME: 0 days 0 hours 0 minutes 6 seconds 767 msec
