                         Program Version 3.0.3 - RELEASE   -
|  1> ! RI PBE def2-SVP def2-SVP/J NBO PAL2
|  2> % maxcore 2000
|  3> % output
|  4>     # printlevel mini
|  5>     print[ P_Basis ] 0
|  6>     print[ P_SCFInfo ] 1
|  7>     print[ P_SCFIterInfo ] 1
|  8>     print[ P_OrbEn ] 0
|  9>     print[ P_Cartesian ] 0
| 10> end
| 11> *xyz 0 1
| 12>  N        1.2472090000    -0.1570630000    -0.3742590000
| 13>  C        2.6111880000    -0.0323230000    -0.2236770000
| 14>  O        3.2220310000     0.9653010000    -0.5480560000
| 15>  N        3.2169450000    -1.1247490000     0.3391300000
| 16>  C        4.6109210000    -1.0303890000     0.7135620000
| 17>  C        5.1810170000    -2.3462200000     0.9548640000
| 18>  C        5.6479860000    -3.4287700000     1.1763590000
| 19>  H        0.8489270000     0.5575760000    -0.9602680000
| 20>  H        0.8660070000    -1.0782120000    -0.5124120000
| 21>  H        2.6521630000    -1.7706990000     0.8645710000
| 22>  H        4.7526120000    -0.4047220000     1.6047280000
| 23>  H        5.1404160000    -0.5282750000    -0.0993100000
| 24>  H        6.0701790000    -4.3874360000     1.3653480000
| 25> *
| 26>
| 27>                          ****END OF INPUT****
 Total Charge           Charge          ....    0
 Multiplicity           Mult            ....    1
 Number of Electrons    NEL             ....   52
 Basis Dimension        Dim             ....  128

MULLIKEN ATOMIC CHARGES
-----------------------
   0 N :   -0.105540
   1 C :    0.056633
   2 O :   -0.237093
   3 N :   -0.205817
   4 C :    0.235839
   5 C :    0.270961
   6 C :   -0.465264
   7 H :    0.123990
   8 H :    0.107712
   9 H :    0.115296
  10 H :    0.043780
  11 H :    0.054849
  12 H :    0.004653
Sum of atomic charges:   -0.0000000

LOEWDIN ATOMIC CHARGES
----------------------
   0 N :   -0.031512
   1 C :    0.018539
   2 O :   -0.217908
   3 N :   -0.033018
   4 C :    0.026694
   5 C :   -0.033282
   6 C :   -0.076040
   7 H :    0.075983
   8 H :    0.066078
   9 H :    0.070517
  10 H :    0.041319
  11 H :    0.055997
  12 H :    0.036633

  Mayer bond orders larger than 0.1
B(  0-N ,  1-C ) :   1.1719 B(  0-N ,  7-H ) :   0.9472 B(  0-N ,  8-H ) :   0.9459
B(  1-C ,  2-O ) :   2.0348 B(  1-C ,  3-N ) :   1.1342 B(  3-N ,  4-C ) :   0.9795
B(  3-N ,  9-H ) :   0.9272 B(  4-C ,  5-C ) :   1.0306 B(  4-C , 10-H ) :   0.9115
B(  4-C , 11-H ) :   0.8932 B(  5-C ,  6-C ) :   2.3801 B(  5-C , 12-H ) :  -0.1038
B(  6-C , 12-H ) :   1.0947

FINAL SINGLE POINT ENERGY      -340.060311584938

DIPOLE MOMENT
-------------
                                X             Y             Z
Electronic contribution:      0.29932       0.78092      -0.50061
Nuclear contribution   :     -1.10842      -1.81309       0.70213
                        -----------------------------------------
Total Dipole Moment    :     -0.80910      -1.03217       0.20152
                        -----------------------------------------
Magnitude (a.u.)       :      1.32688
Magnitude (Debye)      :      3.37266

                             ****ORCA TERMINATED NORMALLY****
TOTAL RUN TIME: 0 days 0 hours 0 minutes 6 seconds 136 msec
