                         Program Version 3.0.3 - RELEASE   -
|  1> ! RI PBE def2-SVP def2-SVP/J NBO PAL2
|  2> % maxcore 2000
|  3> % output
|  4>     # printlevel mini
|  5>     print[ P_Basis ] 0
|  6>     print[ P_SCFInfo ] 1
|  7>     print[ P_SCFIterInfo ] 1
|  8>     print[ P_OrbEn ] 0
|  9>     print[ P_Cartesian ] 0
| 10> end
| 11> *xyz 0 1
| 12>  N        1.1866340000     0.5345980000     0.9416950000
| 13>  C        2.4601280000     0.8259580000     1.3068270000
| 14>  O        2.8067640000     1.8159840000     1.8970140000
| 15>  O        3.2876810000    -0.1720530000     0.9206460000
| 16>  C        4.6280280000    -0.0219070000     1.3177120000
| 17>  C        5.0794820000    -0.7253840000     2.5480600000
| 18>  C        5.4644790000    -1.2388740000     1.1843440000
| 19>  H        0.5113160000     1.2718470000     1.0198050000
| 20>  H        1.0121820000    -0.2232690000     0.3077400000
| 21>  H        5.0406820000     0.9514750000     1.0865390000
| 22>  H        4.3304950000    -1.2874910000     3.0912150000
| 23>  H        5.8283740000    -0.2440030000     3.1637100000
| 24>  H        4.9684950000    -2.1368460000     0.8382620000
| 25>  H        6.4859500000    -1.1215260000     0.8459300000
| 26> *
| 27>
| 28>                          ****END OF INPUT****
 Total Charge           Charge          ....    0
 Multiplicity           Mult            ....    1
 Number of Electrons    NEL             ....   54
 Basis Dimension        Dim             ....  133

MULLIKEN ATOMIC CHARGES
-----------------------
   0 N :   -0.084058
   1 C :    0.119906
   2 O :   -0.226328
   3 O :   -0.258133
   4 C :    0.077258
   5 C :   -0.047108
   6 C :   -0.037041
   7 H :    0.129935
   8 H :    0.122591
   9 H :    0.032390
  10 H :    0.041994
  11 H :    0.045479
  12 H :    0.043285
  13 H :    0.039831
Sum of atomic charges:   -0.0000000

LOEWDIN ATOMIC CHARGES
----------------------
   0 N :   -0.002456
   1 C :    0.024113
   2 O :   -0.195786
   3 O :   -0.080175
   4 C :    0.051855
   5 C :   -0.051436
   6 C :   -0.050119
   7 H :    0.079969
   8 H :    0.074500
   9 H :    0.020475
  10 H :    0.033209
  11 H :    0.032181
  12 H :    0.032872
  13 H :    0.030798

  Mayer bond orders larger than 0.1
B(  0-N ,  1-C ) :   1.2213 B(  0-N ,  7-H ) :   0.9503 B(  0-N ,  8-H ) :   0.9430
B(  1-C ,  2-O ) :   2.0465 B(  1-C ,  3-O ) :   1.1166 B(  3-O ,  4-C ) :   0.9814
B(  4-C ,  5-C ) :   1.0171 B(  4-C ,  6-C ) :   0.9986 B(  4-C ,  9-H ) :   0.9421
B(  5-C ,  6-C ) :   1.0347 B(  5-C , 10-H ) :   0.9422 B(  5-C , 11-H ) :   0.9458
B(  6-C , 12-H ) :   0.9438 B(  6-C , 13-H ) :   0.9423

FINAL SINGLE POINT ENERGY      -361.143103455529

DIPOLE MOMENT
-------------
                                X             Y             Z
Electronic contribution:     -3.79873       3.07305      -0.85319
Nuclear contribution   :      3.39521      -3.70295       0.28738
                        -----------------------------------------
Total Dipole Moment    :     -0.40352      -0.62990      -0.56581
                        -----------------------------------------
Magnitude (a.u.)       :      0.93795
Magnitude (Debye)      :      2.38408

                             ****ORCA TERMINATED NORMALLY****
TOTAL RUN TIME: 0 days 0 hours 0 minutes 6 seconds 219 msec
