                         Program Version 3.0.3 - RELEASE   -
|  1> ! RI PBE def2-SVP def2-SVP/J NBO PAL2
|  2> % maxcore 2000
|  3> % output
|  4>     # printlevel mini
|  5>     print[ P_Basis ] 0
|  6>     print[ P_SCFInfo ] 1
|  7>     print[ P_SCFIterInfo ] 1
|  8>     print[ P_OrbEn ] 0
|  9>     print[ P_Cartesian ] 0
| 10> end
| 11> *xyz 0 1
| 12>  N        1.5772560000     2.2815380000     1.2131150000
| 13>  C        2.8102990000     2.1613050000     0.6654430000
| 14>  O        3.1846300000     2.7280850000    -0.3316550000
| 15>  O        3.5530390000     1.2953680000     1.3830600000
| 16>  C        4.8762210000     1.0552050000     0.8879330000
| 17>  C        5.8437820000     2.0803760000     1.3707760000
| 18>  C        6.9111940000     1.7925710000     2.1004010000
| 19>  H        0.9789150000     2.9988760000     0.8493670000
| 20>  H        1.3890310000     1.8891620000     2.1167880000
| 21>  H        4.8416780000     1.0447160000    -0.2042130000
| 22>  H        5.1433730000     0.0637480000     1.2551190000
| 23>  H        5.6388890000     3.1034270000     1.0674060000
| 24>  H        7.1285600000     0.7740550000     2.4082950000
| 25>  H        7.6122320000     2.5587900000     2.4102760000
| 26> *
| 27>
| 28>                          ****END OF INPUT****
 Total Charge           Charge          ....    0
 Multiplicity           Mult            ....    1
 Number of Electrons    NEL             ....   54
 Basis Dimension        Dim             ....  133

MULLIKEN ATOMIC CHARGES
-----------------------
   0 N :   -0.082304
   1 C :    0.110795
   2 O :   -0.233169
   3 O :   -0.286830
   4 C :    0.251327
   5 C :   -0.108702
   6 C :   -0.027149
   7 H :    0.129849
   8 H :    0.124946
   9 H :    0.039854
  10 H :    0.005156
  11 H :    0.024618
  12 H :    0.018869
  13 H :    0.032738
Sum of atomic charges:   -0.0000000

LOEWDIN ATOMIC CHARGES
----------------------
   0 N :    0.001082
   1 C :    0.021665
   2 O :   -0.205346
   3 O :   -0.091673
   4 C :    0.073880
   5 C :   -0.043350
   6 C :   -0.048086
   7 H :    0.080108
   8 H :    0.075777
   9 H :    0.028994
  10 H :    0.024466
  11 H :    0.032319
  12 H :    0.022528
  13 H :    0.027636

  Mayer bond orders larger than 0.1
B(  0-N ,  1-C ) :   1.2238 B(  0-N ,  7-H ) :   0.9504 B(  0-N ,  8-H ) :   0.9434
B(  1-C ,  2-O ) :   2.0208 B(  1-C ,  3-O ) :   1.1482 B(  3-O ,  4-C ) :   0.9193
B(  4-C ,  5-C ) :   1.0769 B(  4-C ,  9-H ) :   0.9111 B(  4-C , 10-H ) :   0.9395
B(  5-C ,  6-C ) :   2.0050 B(  5-C , 11-H ) :   0.9543 B(  6-C , 12-H ) :   0.9460
B(  6-C , 13-H ) :   0.9472

FINAL SINGLE POINT ENERGY      -361.146916524834

DIPOLE MOMENT
-------------
                                X             Y             Z
Electronic contribution:     -4.55060       0.73879      -1.70651
Nuclear contribution   :      4.14779      -0.93312       2.51214
                        -----------------------------------------
Total Dipole Moment    :     -0.40281      -0.19433       0.80563
                        -----------------------------------------
Magnitude (a.u.)       :      0.92145
Magnitude (Debye)      :      2.34213

                             ****ORCA TERMINATED NORMALLY****
TOTAL RUN TIME: 0 days 0 hours 0 minutes 6 seconds 256 msec
