                         Program Version 3.0.3 - RELEASE   -
|  1> ! RI PBE def2-SVP def2-SVP/J NBO PAL2
|  2> % maxcore 2000
|  3> % output
|  4>     # printlevel mini
|  5>     print[ P_Basis ] 0
|  6>     print[ P_SCFInfo ] 1
|  7>     print[ P_SCFIterInfo ] 1
|  8>     print[ P_OrbEn ] 0
|  9>     print[ P_Cartesian ] 0
| 10> end
| 11> *xyz 0 1
| 12>  N        1.9078670000    -1.6255440000    -0.1143710000
| 13>  C        2.4555790000    -0.3906420000    -0.1695460000
| 14>  O        1.9020310000     0.6030570000    -0.5641140000
| 15>  O        3.7420540000    -0.4437880000     0.2544010000
| 16>  C        4.4287980000     0.8037890000     0.2927620000
| 17>  C        4.4623210000     1.3609560000     1.6354190000
| 18>  C        4.5047770000     1.8307750000     2.7380160000
| 19>  H        0.9243610000    -1.7023880000    -0.2929680000
| 20>  H        2.3854860000    -2.3660260000     0.3649860000
| 21>  H        3.9444960000     1.5030590000    -0.3927150000
| 22>  H        5.4438410000     0.6027610000    -0.0556510000
| 23>  H        4.5343990000     2.2493710000     3.7162810000
| 24> *
| 25>
| 26>                          ****END OF INPUT****
 Total Charge           Charge          ....    0
 Multiplicity           Mult            ....    1
 Number of Electrons    NEL             ....   52
 Basis Dimension        Dim             ....  123

MULLIKEN ATOMIC CHARGES
-----------------------
   0 N :   -0.082093
   1 C :    0.117616
   2 O :   -0.220069
   3 O :   -0.278432
   4 C :    0.252399
   5 C :    0.292787
   6 C :   -0.452459
   7 H :    0.133062
   8 H :    0.127639
   9 H :    0.058440
  10 H :    0.044628
  11 H :    0.006480
Sum of atomic charges:   -0.0000000

LOEWDIN ATOMIC CHARGES
----------------------
   0 N :    0.004068
   1 C :    0.029230
   2 O :   -0.194005
   3 O :   -0.089514
   4 C :    0.064965
   5 C :   -0.037414
   6 C :   -0.060834
   7 H :    0.082317
   8 H :    0.077552
   9 H :    0.042347
  10 H :    0.044146
  11 H :    0.037141

  Mayer bond orders larger than 0.1
B(  0-N ,  1-C ) :   1.2280 B(  0-N ,  7-H ) :   0.9510 B(  0-N ,  8-H ) :   0.9421
B(  1-C ,  2-O ) :   2.0435 B(  1-C ,  3-O ) :   1.1207 B(  3-O ,  4-C ) :   0.9750
B(  4-C ,  5-C ) :   1.0602 B(  4-C ,  9-H ) :   0.8900 B(  4-C , 10-H ) :   0.9114
B(  5-C ,  6-C ) :   2.3878 B(  5-C , 11-H ) :  -0.1011 B(  6-C , 11-H ) :   1.0917

FINAL SINGLE POINT ENERGY      -359.899745371348

DIPOLE MOMENT
-------------
                                X             Y             Z
Electronic contribution:     -0.63550      -0.02412      -0.39184
Nuclear contribution   :      0.77080      -0.85199       0.70447
                        -----------------------------------------
Total Dipole Moment    :      0.13530      -0.87611       0.31264
                        -----------------------------------------
Magnitude (a.u.)       :      0.94001
Magnitude (Debye)      :      2.38932

                             ****ORCA TERMINATED NORMALLY****
TOTAL RUN TIME: 0 days 0 hours 0 minutes 5 seconds 624 msec
