                         Program Version 3.0.3 - RELEASE   -
|  1> ! RI PBE def2-SVP def2-SVP/J NBO PAL2
|  2> % maxcore 2000
|  3> % output
|  4>     # printlevel mini
|  5>     print[ P_Basis ] 0
|  6>     print[ P_SCFInfo ] 1
|  7>     print[ P_SCFIterInfo ] 1
|  8>     print[ P_OrbEn ] 0
|  9>     print[ P_Cartesian ] 0
| 10> end
| 11> *xyz 0 1
| 12>  N        0.9786770000     0.2077650000    -0.1449050000
| 13>  N        2.3608420000     0.1250270000    -0.1212440000
| 14>  C        3.2018060000     1.2085630000    -0.2110690000
| 15>  C        4.4823040000     0.7403050000    -0.1514770000
| 16>  C        4.4301690000    -0.6777850000    -0.0205530000
| 17>  C        3.1023630000    -1.0110170000    -0.0063220000
| 18>  O        2.4293420000    -2.1797870000     0.0938790000
| 19>  H        0.6066310000    -0.1897420000     0.7105460000
| 20>  H        0.6255120000    -0.3416840000    -0.9205240000
| 21>  H        2.7910340000     2.1989130000    -0.3078470000
| 22>  H        5.3755840000     1.3427540000    -0.1965180000
| 23>  H        5.2632940000    -1.3596780000     0.0530100000
| 24>  H        3.0697430000    -2.8913140000     0.1673160000
| 25> *
| 26>
| 27>                          ****END OF INPUT****
 Total Charge           Charge          ....    0
 Multiplicity           Mult            ....    1
 Number of Electrons    NEL             ....   52
 Basis Dimension        Dim             ....  128

MULLIKEN ATOMIC CHARGES
-----------------------
   0 N :   -0.044733
   1 N :   -0.193807
   2 C :    0.078275
   3 C :   -0.015673
   4 C :   -0.117352
   5 C :    0.142114
   6 O :   -0.168844
   7 H :    0.111759
   8 H :    0.112048
   9 H :   -0.017077
  10 H :   -0.023410
  11 H :   -0.045777
  12 H :    0.182477
Sum of atomic charges:   -0.0000000

LOEWDIN ATOMIC CHARGES
----------------------
   0 N :   -0.015263
   1 N :    0.070306
   2 C :   -0.045773
   3 C :   -0.084273
   4 C :   -0.151934
   5 C :   -0.002704
   6 O :   -0.043070
   7 H :    0.058903
   8 H :    0.058992
   9 H :    0.017715
  10 H :    0.022276
  11 H :    0.017156
  12 H :    0.097669

  Mayer bond orders larger than 0.1
B(  0-N ,  1-N ) :   1.0243 B(  0-N ,  7-H ) :   0.9679 B(  0-N ,  8-H ) :   0.9684
B(  1-N ,  2-C ) :   1.1386 B(  1-N ,  5-C ) :   1.1884 B(  2-C ,  3-C ) :   1.4991
B(  2-C ,  9-H ) :   0.9971 B(  3-C ,  4-C ) :   1.2391 B(  3-C , 10-H ) :   1.0016
B(  4-C ,  5-C ) :   1.4202 B(  4-C , 11-H ) :   1.0097 B(  5-C ,  6-O ) :   1.2078
B(  6-O , 12-H ) :   0.9665

FINAL SINGLE POINT ENERGY      -340.063083857688

DIPOLE MOMENT
-------------
                                X             Y             Z
Electronic contribution:     -0.55563      -1.32942       0.11341
Nuclear contribution   :      0.18818       0.43910      -0.03694
                        -----------------------------------------
Total Dipole Moment    :     -0.36745      -0.89032       0.07648
                        -----------------------------------------
Magnitude (a.u.)       :      0.96620
Magnitude (Debye)      :      2.45589

                             ****ORCA TERMINATED NORMALLY****
TOTAL RUN TIME: 0 days 0 hours 0 minutes 6 seconds 430 msec
