                         Program Version 3.0.3 - RELEASE   -
|  1> ! RI PBE def2-SVP def2-SVP/J NBO PAL2
|  2> % maxcore 2000
|  3> % output
|  4>     # printlevel mini
|  5>     print[ P_Basis ] 0
|  6>     print[ P_SCFInfo ] 1
|  7>     print[ P_SCFIterInfo ] 1
|  8>     print[ P_OrbEn ] 0
|  9>     print[ P_Cartesian ] 0
| 10> end
| 11> *xyz 0 1
| 12>  N        1.1062890000     0.1673050000     0.0201420000
| 13>  N        2.4617110000     0.1090060000    -0.1970410000
| 14>  C        3.2082090000    -1.1077260000    -0.3717800000
| 15>  C        4.6015050000    -0.6106470000    -0.5696940000
| 16>  C        4.6248220000     0.7169540000    -0.5115860000
| 17>  C        3.2534870000     1.2385430000    -0.2700650000
| 18>  O        2.8970990000     2.3851110000    -0.1604380000
| 19>  H        0.8507560000    -0.3038410000     0.8793480000
| 20>  H        0.5916970000    -0.2280370000    -0.7572960000
| 21>  H        2.8531040000    -1.6826730000    -1.2389010000
| 22>  H        3.1302420000    -1.7635060000     0.5071610000
| 23>  H        5.4393430000    -1.2753710000    -0.7333890000
| 24>  H        5.4749470000     1.3750910000    -0.6156500000
| 25> *
| 26>
| 27>                          ****END OF INPUT****
 Total Charge           Charge          ....    0
 Multiplicity           Mult            ....    1
 Number of Electrons    NEL             ....   52
 Basis Dimension        Dim             ....  128

MULLIKEN ATOMIC CHARGES
-----------------------
   0 N :   -0.045341
   1 N :   -0.310932
   2 C :    0.218425
   3 C :   -0.085558
   4 C :   -0.038964
   5 C :    0.146149
   6 O :   -0.170744
   7 H :    0.103363
   8 H :    0.104674
   9 H :    0.035482
  10 H :    0.036592
  11 H :    0.010274
  12 H :   -0.003420
Sum of atomic charges:   -0.0000000

LOEWDIN ATOMIC CHARGES
----------------------
   0 N :   -0.009332
   1 N :   -0.019767
   2 C :    0.020662
   3 C :   -0.017883
   4 C :   -0.046774
   5 C :    0.010074
   6 O :   -0.166890
   7 H :    0.051492
   8 H :    0.051860
   9 H :    0.031802
  10 H :    0.032084
  11 H :    0.028455
  12 H :    0.034217

  Mayer bond orders larger than 0.1
B(  0-N ,  1-N ) :   1.0434 B(  0-N ,  7-H ) :   0.9700 B(  0-N ,  8-H ) :   0.9697
B(  1-N ,  2-C ) :   0.9961 B(  1-N ,  5-C ) :   1.0685 B(  2-C ,  3-C ) :   1.0112
B(  2-C ,  9-H ) :   0.9081 B(  2-C , 10-H ) :   0.9080 B(  3-C ,  4-C ) :   1.7679
B(  3-C , 11-H ) :   0.9843 B(  4-C ,  5-C ) :   0.9641 B(  4-C , 12-H ) :   1.0087
B(  5-C ,  6-O ) :   2.1612

FINAL SINGLE POINT ENERGY      -340.071352140055

DIPOLE MOMENT
-------------
                                X             Y             Z
Electronic contribution:      0.25673       3.93450       0.13916
Nuclear contribution   :     -0.21049      -5.96323      -0.24343
                        -----------------------------------------
Total Dipole Moment    :      0.04625      -2.02872      -0.10427
                        -----------------------------------------
Magnitude (a.u.)       :      2.03193
Magnitude (Debye)      :      5.16475

                             ****ORCA TERMINATED NORMALLY****
TOTAL RUN TIME: 0 days 0 hours 0 minutes 6 seconds 424 msec
