                         Program Version 3.0.3 - RELEASE   -
|  1> ! RI PBE def2-SVP def2-SVP/J NBO PAL2
|  2> % maxcore 2000
|  3> % output
|  4>     # printlevel mini
|  5>     print[ P_Basis ] 0
|  6>     print[ P_SCFInfo ] 1
|  7>     print[ P_SCFIterInfo ] 1
|  8>     print[ P_OrbEn ] 0
|  9>     print[ P_Cartesian ] 0
| 10> end
| 11> *xyz 0 1
| 12>  N        1.1717730000     0.2630090000     0.5523180000
| 13>  N        2.4124210000     0.2061330000    -0.0780250000
| 14>  C        3.2238930000     1.3976090000    -0.1915150000
| 15>  C        4.4649950000     0.8690820000    -0.9124500000
| 16>  C        4.5470890000    -0.5944130000    -0.4815400000
| 17>  C        3.1295160000    -0.9506600000    -0.0929180000
| 18>  O        2.6851610000    -2.0366530000     0.2166560000
| 19>  H        1.1065700000    -0.5781430000     1.1233470000
| 20>  H        0.4468150000     0.1786160000    -0.1542670000
| 21>  H        3.4551840000     1.8020770000     0.8024720000
| 22>  H        2.7014700000     2.1727700000    -0.7556000000
| 23>  H        5.3571230000     1.4442780000    -0.6661590000
| 24>  H        4.3144250000     0.9326950000    -1.9921740000
| 25>  H        5.1726120000    -0.7325780000     0.4062110000
| 26>  H        4.9203620000    -1.2723150000    -1.2487570000
| 27> *
| 28>
| 29>                          ****END OF INPUT****
 Total Charge           Charge          ....    0
 Multiplicity           Mult            ....    1
 Number of Electrons    NEL             ....   54
 Basis Dimension        Dim             ....  138

MULLIKEN ATOMIC CHARGES
-----------------------
   0 N :   -0.043660
   1 N :   -0.289719
   2 C :    0.177491
   3 C :   -0.044927
   4 C :   -0.015175
   5 C :    0.044109
   6 O :   -0.211424
   7 H :    0.094234
   8 H :    0.111898
   9 H :    0.016398
  10 H :    0.017652
  11 H :    0.023694
  12 H :    0.035769
  13 H :    0.043720
  14 H :    0.039939
Sum of atomic charges:   -0.0000000

LOEWDIN ATOMIC CHARGES
----------------------
   0 N :   -0.027694
   1 N :   -0.004291
   2 C :    0.034186
   3 C :   -0.043298
   4 C :   -0.063309
   5 C :    0.005170
   6 O :   -0.196930
   7 H :    0.050990
   8 H :    0.059098
   9 H :    0.015737
  10 H :    0.020853
  11 H :    0.030520
  12 H :    0.032619
  13 H :    0.044607
  14 H :    0.041741

  Mayer bond orders larger than 0.1
B(  0-N ,  1-N ) :   1.0389 B(  0-N ,  7-H ) :   0.9531 B(  0-N ,  8-H ) :   0.9656
B(  1-N ,  2-C ) :   0.9564 B(  1-N ,  5-C ) :   1.1694 B(  2-C ,  3-C ) :   1.0713
B(  2-C ,  9-H ) :   0.9304 B(  2-C , 10-H ) :   0.9451 B(  3-C ,  4-C ) :   1.1037
B(  3-C , 11-H ) :   0.9358 B(  3-C , 12-H ) :   0.9346 B(  4-C ,  5-C ) :   0.9696
B(  4-C , 13-H ) :   0.9072 B(  4-C , 14-H ) :   0.9227 B(  5-C ,  6-O ) :   2.1003

FINAL SINGLE POINT ENERGY      -341.296820847911

DIPOLE MOMENT
-------------
                                X             Y             Z
Electronic contribution:     -2.63772      -3.75719       0.98460
Nuclear contribution   :      2.86193       4.68129      -1.38111
                        -----------------------------------------
Total Dipole Moment    :      0.22420       0.92410      -0.39651
                        -----------------------------------------
Magnitude (a.u.)       :      1.03027
Magnitude (Debye)      :      2.61873

                             ****ORCA TERMINATED NORMALLY****
TOTAL RUN TIME: 0 days 0 hours 0 minutes 7 seconds 469 msec
