                         Program Version 3.0.3 - RELEASE   -
|  1> ! RI PBE def2-SVP def2-SVP/J NBO PAL2
|  2> % maxcore 2000
|  3> % output
|  4>     # printlevel mini
|  5>     print[ P_Basis ] 0
|  6>     print[ P_SCFInfo ] 1
|  7>     print[ P_SCFIterInfo ] 1
|  8>     print[ P_OrbEn ] 0
|  9>     print[ P_Cartesian ] 0
| 10> end
| 11> *xyz 0 1
| 12>  N        0.9386070000     0.3033890000    -0.0420790000
| 13>  N        2.3178340000     0.1735740000    -0.0319500000
| 14>  C        3.1559240000     1.2258310000    -0.1755770000
| 15>  C        4.4470730000     0.7542720000    -0.1189030000
| 16>  C        4.3623240000    -0.6461710000     0.0675600000
| 17>  O        5.3825710000    -1.5359640000     0.1811080000
| 18>  C        3.0351240000    -0.9911110000     0.1195380000
| 19>  H        0.5609870000    -0.0356230000     0.8354670000
| 20>  H        0.5525180000    -0.2529400000    -0.7964240000
| 21>  H        2.7619010000     2.2199370000    -0.3059260000
| 22>  H        5.3450640000     1.3479710000    -0.2020310000
| 23>  H        6.2125560000    -1.0592070000     0.1127660000
| 24>  H        2.5538960000    -1.9459790000     0.2487590000
| 25> *
| 26>
| 27>                          ****END OF INPUT****
 Total Charge           Charge          ....    0
 Multiplicity           Mult            ....    1
 Number of Electrons    NEL             ....   52
 Basis Dimension        Dim             ....  128

MULLIKEN ATOMIC CHARGES
-----------------------
   0 N :   -0.053343
   1 N :   -0.167400
   2 C :    0.083450
   3 C :   -0.105604
   4 C :    0.124161
   5 O :   -0.179243
   6 C :   -0.011692
   7 H :    0.110549
   8 H :    0.111204
   9 H :   -0.010518
  10 H :   -0.036790
  11 H :    0.165941
  12 H :   -0.030714
Sum of atomic charges:   -0.0000000

LOEWDIN ATOMIC CHARGES
----------------------
   0 N :   -0.018510
   1 N :    0.092487
   2 C :   -0.027344
   3 C :   -0.140107
   4 C :   -0.014525
   5 O :   -0.045413
   6 C :   -0.100830
   7 H :    0.058002
   8 H :    0.058244
   9 H :    0.019422
  10 H :    0.020173
  11 H :    0.084909
  12 H :    0.013493

  Mayer bond orders larger than 0.1
B(  0-N ,  1-N ) :   1.0196 B(  0-N ,  7-H ) :   0.9671 B(  0-N ,  8-H ) :   0.9678
B(  1-N ,  2-C ) :   1.2422 B(  1-N ,  6-C ) :   1.1317 B(  2-C ,  3-C ) :   1.4004
B(  2-C ,  6-C ) :   0.1073 B(  2-C ,  9-H ) :   0.9868 B(  3-C ,  4-C ) :   1.2784
B(  3-C , 10-H ) :   1.0062 B(  4-C ,  5-O ) :   1.1854 B(  4-C ,  6-C ) :   1.4275
B(  5-O , 11-H ) :   0.9731 B(  6-C , 12-H ) :   0.9907

FINAL SINGLE POINT ENERGY      -340.058796212630

DIPOLE MOMENT
-------------
                                X             Y             Z
Electronic contribution:      1.67875      -1.03843       0.12734
Nuclear contribution   :     -2.05078       1.01522      -0.12514
                        -----------------------------------------
Total Dipole Moment    :     -0.37202      -0.02321       0.00220
                        -----------------------------------------
Magnitude (a.u.)       :      0.37275
Magnitude (Debye)      :      0.94747

                             ****ORCA TERMINATED NORMALLY****
TOTAL RUN TIME: 0 days 0 hours 0 minutes 6 seconds 163 msec
