                         Program Version 3.0.3 - RELEASE   -
|  1> ! RI PBE def2-SVP def2-SVP/J NBO PAL2
|  2> % maxcore 2000
|  3> % output
|  4>     # printlevel mini
|  5>     print[ P_Basis ] 0
|  6>     print[ P_SCFInfo ] 1
|  7>     print[ P_SCFIterInfo ] 1
|  8>     print[ P_OrbEn ] 0
|  9>     print[ P_Cartesian ] 0
| 10> end
| 11> *xyz 0 1
| 12>  N        1.0837870000     0.1114370000     0.1170600000
| 13>  N        2.4652610000     0.1590120000    -0.0480800000
| 14>  C        3.0176540000     1.2572920000     0.2279350000
| 15>  C        2.4244110000     2.5312160000     0.7592170000
| 16>  C        3.5398160000     3.5429510000     0.5150760000
| 17>  C        4.7745280000     2.6544390000     0.5463200000
| 18>  O        4.3536780000     1.4012870000     0.0199300000
| 19>  H        0.8166870000    -0.8623710000     0.1060030000
| 20>  H        0.7810770000     0.5113530000     1.0014700000
| 21>  H        2.2000110000     2.4272120000     1.8276440000
| 22>  H        1.4875870000     2.7631240000     0.2484910000
| 23>  H        3.5776310000     4.3436840000     1.2539100000
| 24>  H        3.4279080000     3.9940090000    -0.4733770000
| 25>  H        5.1400880000     2.5116610000     1.5711040000
| 26>  H        5.5973660000     3.0158940000    -0.0705840000
| 27> *
| 28>
| 29>                          ****END OF INPUT****
 Total Charge           Charge          ....    0
 Multiplicity           Mult            ....    1
 Number of Electrons    NEL             ....   54
 Basis Dimension        Dim             ....  138

MULLIKEN ATOMIC CHARGES
-----------------------
   0 N :   -0.078326
   1 N :   -0.121030
   2 C :   -0.039484
   3 C :   -0.015559
   4 C :   -0.050212
   5 C :    0.188682
   6 O :   -0.254668
   7 H :    0.106684
   8 H :    0.084778
   9 H :    0.037719
  10 H :    0.042107
  11 H :    0.021757
  12 H :    0.034819
  13 H :    0.015297
  14 H :    0.027437
Sum of atomic charges:    0.0000000

LOEWDIN ATOMIC CHARGES
----------------------
   0 N :   -0.026378
   1 N :   -0.098469
   2 C :   -0.027198
   3 C :   -0.069830
   4 C :   -0.049319
   5 C :    0.075632
   6 O :   -0.076796
   7 H :    0.056317
   8 H :    0.038659
   9 H :    0.036862
  10 H :    0.038402
  11 H :    0.031891
  12 H :    0.033914
  13 H :    0.012518
  14 H :    0.023794

  Mayer bond orders larger than 0.1
B(  0-N ,  1-N ) :   1.0485 B(  0-N ,  7-H ) :   0.9705 B(  0-N ,  8-H ) :   0.9442
B(  1-N ,  2-C ) :   1.8974 B(  2-C ,  3-C ) :   1.0187 B(  2-C ,  6-O ) :   1.1289
B(  3-C ,  4-C ) :   1.1027 B(  3-C ,  9-H ) :   0.9087 B(  3-C , 10-H ) :   0.9128
B(  4-C ,  5-C ) :   1.0953 B(  4-C , 11-H ) :   0.9270 B(  4-C , 12-H ) :   0.9341
B(  5-C ,  6-O ) :   0.9761 B(  5-C , 13-H ) :   0.9378 B(  5-C , 14-H ) :   0.9495

FINAL SINGLE POINT ENERGY      -341.259637029211

DIPOLE MOMENT
-------------
                                X             Y             Z
Electronic contribution:      1.14305      -4.25628      -1.87336
Nuclear contribution   :     -1.46498       5.15875       2.76566
                        -----------------------------------------
Total Dipole Moment    :     -0.32194       0.90247       0.89229
                        -----------------------------------------
Magnitude (a.u.)       :      1.30931
Magnitude (Debye)      :      3.32799

                             ****ORCA TERMINATED NORMALLY****
TOTAL RUN TIME: 0 days 0 hours 0 minutes 7 seconds 334 msec
