                         Program Version 3.0.3 - RELEASE   -
|  1> ! RI PBE def2-SVP def2-SVP/J NBO PAL2
|  2> % maxcore 2000
|  3> % output
|  4>     # printlevel mini
|  5>     print[ P_Basis ] 0
|  6>     print[ P_SCFInfo ] 1
|  7>     print[ P_SCFIterInfo ] 1
|  8>     print[ P_OrbEn ] 0
|  9>     print[ P_Cartesian ] 0
| 10> end
| 11> *xyz 0 1
| 12>  N        1.1929770000     0.4285380000    -0.0624090000
| 13>  N        2.5265410000     0.1099160000     0.0933650000
| 14>  C        3.0579400000     0.4546060000     1.1794840000
| 15>  C        2.4851910000     1.1363400000     2.3928120000
| 16>  C        3.6987560000     1.2450550000     3.2616640000
| 17>  C        4.7174570000     0.7061960000     2.6038000000
| 18>  O        4.4020360000     0.2196930000     1.3675500000
| 19>  H        0.8130510000    -0.1565730000    -0.7916140000
| 20>  H        0.6435570000     0.3115250000     0.7852670000
| 21>  H        1.6790700000     0.5424520000     2.8466170000
| 22>  H        2.0419370000     2.1014380000     2.1155390000
| 23>  H        3.7390800000     1.6818550000     4.2467410000
| 24>  H        5.7542080000     0.5879700000     2.8809740000
| 25> *
| 26>
| 27>                          ****END OF INPUT****
 Total Charge           Charge          ....    0
 Multiplicity           Mult            ....    1
 Number of Electrons    NEL             ....   52
 Basis Dimension        Dim             ....  128

MULLIKEN ATOMIC CHARGES
-----------------------
   0 N :   -0.071686
   1 N :   -0.093021
   2 C :   -0.054726
   3 C :    0.075907
   4 C :   -0.130045
   5 C :    0.155718
   6 O :   -0.194631
   7 H :    0.114085
   8 H :    0.087303
   9 H :    0.048414
  10 H :    0.056162
  11 H :    0.000405
  12 H :    0.006114
Sum of atomic charges:   -0.0000000

LOEWDIN ATOMIC CHARGES
----------------------
   0 N :   -0.011156
   1 N :   -0.077165
   2 C :   -0.012166
   3 C :   -0.061765
   4 C :   -0.101916
   5 C :    0.047372
   6 O :   -0.024793
   7 H :    0.060049
   8 H :    0.040495
   9 H :    0.040459
  10 H :    0.046300
  11 H :    0.028758
  12 H :    0.025527

  Mayer bond orders larger than 0.1
B(  0-N ,  1-N ) :   1.0775 B(  0-N ,  7-H ) :   0.9677 B(  0-N ,  8-H ) :   0.9425
B(  1-N ,  2-C ) :   1.8966 B(  2-C ,  3-C ) :   1.0319 B(  2-C ,  6-O ) :   1.0754
B(  3-C ,  4-C ) :   1.0510 B(  3-C ,  9-H ) :   0.8874 B(  3-C , 10-H ) :   0.8869
B(  4-C ,  5-C ) :   1.7492 B(  4-C ,  6-O ) :   0.1010 B(  4-C , 11-H ) :   0.9785
B(  5-C ,  6-O ) :   1.0861 B(  5-C , 12-H ) :   0.9997

FINAL SINGLE POINT ENERGY      -340.046074389209

DIPOLE MOMENT
-------------
                                X             Y             Z
Electronic contribution:      3.04497      -1.35903      -2.00276
Nuclear contribution   :     -3.72992       1.37733       2.83466
                        -----------------------------------------
Total Dipole Moment    :     -0.68495       0.01830       0.83189
                        -----------------------------------------
Magnitude (a.u.)       :      1.07775
Magnitude (Debye)      :      2.73942

                             ****ORCA TERMINATED NORMALLY****
TOTAL RUN TIME: 0 days 0 hours 0 minutes 6 seconds 749 msec
