                         Program Version 3.0.3 - RELEASE   -
|  1> ! RI PBE def2-SVP def2-SVP/J NBO PAL2
|  2> % maxcore 2000
|  3> % output
|  4>     # printlevel mini
|  5>     print[ P_Basis ] 0
|  6>     print[ P_SCFInfo ] 1
|  7>     print[ P_SCFIterInfo ] 1
|  8>     print[ P_OrbEn ] 0
|  9>     print[ P_Cartesian ] 0
| 10> end
| 11> *xyz 0 1
| 12>  N        0.9346350000     0.0426490000     0.0170000000
| 13>  N        2.3000990000     0.1127110000     0.0220430000
| 14>  C        2.8646470000     0.7443810000    -0.9175190000
| 15>  C        2.2460090000     1.5114740000    -2.0543300000
| 16>  C        3.4738200000     1.8519600000    -2.8960370000
| 17>  O        4.5593000000     1.8915720000    -1.9898240000
| 18>  C        4.3594540000     0.8419580000    -1.0652940000
| 19>  H        0.6013600000    -0.1520530000     0.9483120000
| 20>  H        0.4655360000     0.8508010000    -0.3809300000
| 21>  H        1.7512100000     2.4191560000    -1.6872100000
| 22>  H        1.5018290000     0.9188950000    -2.5943330000
| 23>  H        3.4176280000     2.8197660000    -3.3947230000
| 24>  H        3.6398890000     1.0756720000    -3.6574470000
| 25>  H        4.8678410000     1.0885380000    -0.1324320000
| 26>  H        4.7741210000    -0.1029010000    -1.4508730000
| 27> *
| 28>
| 29>                          ****END OF INPUT****
 Total Charge           Charge          ....    0
 Multiplicity           Mult            ....    1
 Number of Electrons    NEL             ....   54
 Basis Dimension        Dim             ....  138

MULLIKEN ATOMIC CHARGES
-----------------------
   0 N :   -0.059894
   1 N :   -0.105720
   2 C :   -0.328992
   3 C :    0.018109
   4 C :    0.190851
   5 O :   -0.358285
   6 C :    0.317920
   7 H :    0.113765
   8 H :    0.089641
   9 H :    0.034651
  10 H :    0.035657
  11 H :    0.013268
  12 H :    0.004267
  13 H :    0.026027
  14 H :    0.008737
Sum of atomic charges:    0.0000000

LOEWDIN ATOMIC CHARGES
----------------------
   0 N :   -0.002204
   1 N :   -0.056273
   2 C :   -0.086399
   3 C :   -0.078568
   4 C :    0.069851
   5 O :   -0.153692
   6 C :    0.064803
   7 H :    0.059175
   8 H :    0.040858
   9 H :    0.035321
  10 H :    0.035617
  11 H :    0.020602
  12 H :    0.007047
  13 H :    0.028768
  14 H :    0.015095

  Mayer bond orders larger than 0.1
B(  0-N ,  1-N ) :   1.1000 B(  0-N ,  2-C ) :   0.1039 B(  0-N ,  7-H ) :   0.9646
B(  0-N ,  8-H ) :   0.9398 B(  1-N ,  2-C ) :   1.9246 B(  2-C ,  3-C ) :   1.0439
B(  2-C ,  6-C ) :   1.0280 B(  3-C ,  4-C ) :   1.0968 B(  3-C ,  9-H ) :   0.8946
B(  3-C , 10-H ) :   0.9066 B(  4-C ,  5-O ) :   1.0185 B(  4-C , 11-H ) :   0.9404
B(  4-C , 12-H ) :   0.9223 B(  5-O ,  6-C ) :   1.0081 B(  6-C , 13-H ) :   0.9338
B(  6-C , 14-H ) :   0.9040

FINAL SINGLE POINT ENERGY      -341.247877718248

DIPOLE MOMENT
-------------
                                X             Y             Z
Electronic contribution:      1.47262      -0.51647       1.99625
Nuclear contribution   :     -2.37832       0.80704      -2.06143
                        -----------------------------------------
Total Dipole Moment    :     -0.90571       0.29057      -0.06517
                        -----------------------------------------
Magnitude (a.u.)       :      0.95341
Magnitude (Debye)      :      2.42336

                             ****ORCA TERMINATED NORMALLY****
TOTAL RUN TIME: 0 days 0 hours 0 minutes 7 seconds 271 msec
