                         Program Version 3.0.3 - RELEASE   -
|  1> ! RI PBE def2-SVP def2-SVP/J NBO PAL2
|  2> % maxcore 2000
|  3> % output
|  4>     # printlevel mini
|  5>     print[ P_Basis ] 0
|  6>     print[ P_SCFInfo ] 1
|  7>     print[ P_SCFIterInfo ] 1
|  8>     print[ P_OrbEn ] 0
|  9>     print[ P_Cartesian ] 0
| 10> end
| 11> *xyz 0 1
| 12>  N        1.0547480000    -0.0131470000    -0.3667560000
| 13>  N        2.4240570000    -0.0143830000    -0.2568080000
| 14>  C        2.9992920000     1.0985710000    -0.0375090000
| 15>  C        4.5012390000     1.2207710000     0.0559930000
| 16>  O        4.7534320000     2.6125490000     0.3153080000
| 17>  C        3.5625300000     3.2315430000     0.3565270000
| 18>  C        2.4936140000     2.4454810000     0.1691110000
| 19>  H        0.7136210000    -0.9470260000    -0.1958740000
| 20>  H        0.5895140000     0.6461730000     0.2507490000
| 21>  H        5.0064900000     0.9474840000    -0.8733520000
| 22>  H        4.9242270000     0.6380560000     0.8771700000
| 23>  H        3.6117530000     4.2981460000     0.5312370000
| 24>  H        1.4699930000     2.7820840000     0.1416020000
| 25> *
| 26>
| 27>                          ****END OF INPUT****
 Total Charge           Charge          ....    0
 Multiplicity           Mult            ....    1
 Number of Electrons    NEL             ....   52
 Basis Dimension        Dim             ....  128

MULLIKEN ATOMIC CHARGES
-----------------------
   0 N :   -0.058858
   1 N :   -0.135024
   2 C :   -0.209907
   3 C :    0.284383
   4 O :   -0.266941
   5 C :    0.133477
   6 C :   -0.033790
   7 H :    0.108333
   8 H :    0.086922
   9 H :    0.046342
  10 H :    0.047341
  11 H :    0.016484
  12 H :   -0.018762
Sum of atomic charges:   -0.0000000

LOEWDIN ATOMIC CHARGES
----------------------
   0 N :   -0.008451
   1 N :   -0.081344
   2 C :   -0.091143
   3 C :    0.092649
   4 O :   -0.063363
   5 C :    0.065425
   6 C :   -0.133782
   7 H :    0.056725
   8 H :    0.039664
   9 H :    0.035320
  10 H :    0.034573
  11 H :    0.024564
  12 H :    0.029163

  Mayer bond orders larger than 0.1
B(  0-N ,  1-N ) :   1.0916 B(  0-N ,  7-H ) :   0.9665 B(  0-N ,  8-H ) :   0.9417
B(  1-N ,  2-C ) :   1.8302 B(  2-C ,  3-C ) :   1.0347 B(  2-C ,  6-C ) :   1.0798
B(  3-C ,  4-O ) :   0.9513 B(  3-C ,  9-H ) :   0.9264 B(  3-C , 10-H ) :   0.9288
B(  4-O ,  5-C ) :   1.1703 B(  5-C ,  6-C ) :   1.5930 B(  5-C , 11-H ) :   0.9757
B(  6-C , 12-H ) :   0.9962

FINAL SINGLE POINT ENERGY      -340.045300388653

DIPOLE MOMENT
-------------
                                X             Y             Z
Electronic contribution:      1.69518       0.77668      -0.00590
Nuclear contribution   :     -2.12953      -0.52291       0.48100
                        -----------------------------------------
Total Dipole Moment    :     -0.43435       0.25377       0.47510
                        -----------------------------------------
Magnitude (a.u.)       :      0.69194
Magnitude (Debye)      :      1.75877

                             ****ORCA TERMINATED NORMALLY****
TOTAL RUN TIME: 0 days 0 hours 0 minutes 6 seconds 296 msec
