                         Program Version 3.0.3 - RELEASE   -
|  1> ! RI PBE def2-SVP def2-SVP/J NBO PAL2
|  2> % maxcore 2000
|  3> % output
|  4>     # printlevel mini
|  5>     print[ P_Basis ] 0
|  6>     print[ P_SCFInfo ] 1
|  7>     print[ P_SCFIterInfo ] 1
|  8>     print[ P_OrbEn ] 0
|  9>     print[ P_Cartesian ] 0
| 10> end
| 11> *xyz 0 1
| 12>  N        1.1122970000    -0.3623440000     0.2385000000
| 13>  N        2.4535520000    -0.1000300000    -0.0024280000
| 14>  C        3.0150820000    -0.7640770000    -0.9197310000
| 15>  O        4.3431260000    -0.5553940000    -1.1712440000
| 16>  C        4.7592550000    -1.4047820000    -2.2246170000
| 17>  C        3.5437970000    -2.1763950000    -2.6064650000
| 18>  C        2.5292730000    -1.7901540000    -1.8377060000
| 19>  H        0.7577180000     0.3965570000     0.8022150000
| 20>  H        0.5598640000    -0.4052300000    -0.6134600000
| 21>  H        5.5721260000    -2.0530810000    -1.8730330000
| 22>  H        5.1521080000    -0.7962850000    -3.0493240000
| 23>  H        3.5313110000    -2.9341090000    -3.3782740000
| 24>  H        1.5216820000    -2.1780860000    -1.8433440000
| 25> *
| 26>
| 27>                          ****END OF INPUT****
 Total Charge           Charge          ....    0
 Multiplicity           Mult            ....    1
 Number of Electrons    NEL             ....   52
 Basis Dimension        Dim             ....  128

MULLIKEN ATOMIC CHARGES
-----------------------
   0 N :   -0.072708
   1 N :   -0.113190
   2 C :    0.050934
   3 O :   -0.266661
   4 C :    0.261782
   5 C :   -0.117856
   6 C :   -0.019204
   7 H :    0.109408
   8 H :    0.088884
   9 H :    0.040884
  10 H :    0.037981
  11 H :    0.011953
  12 H :   -0.012207
Sum of atomic charges:    0.0000000

LOEWDIN ATOMIC CHARGES
----------------------
   0 N :   -0.020659
   1 N :   -0.091743
   2 C :   -0.023182
   3 O :   -0.078734
   4 C :    0.080192
   5 C :   -0.026950
   6 C :   -0.060021
   7 H :    0.057858
   8 H :    0.040038
   9 H :    0.031142
  10 H :    0.029863
  11 H :    0.030640
  12 H :    0.031554

  Mayer bond orders larger than 0.1
B(  0-N ,  1-N ) :   1.0634 B(  0-N ,  7-H ) :   0.9698 B(  0-N ,  8-H ) :   0.9454
B(  1-N ,  2-C ) :   1.8412 B(  2-C ,  3-O ) :   1.0938 B(  2-C ,  6-C ) :   1.0247
B(  3-O ,  4-C ) :   1.0058 B(  4-C ,  5-C ) :   1.0421 B(  4-C ,  9-H ) :   0.9172
B(  4-C , 10-H ) :   0.9174 B(  5-C ,  6-C ) :   1.7542 B(  5-C , 11-H ) :   0.9748
B(  6-C , 12-H ) :   0.9997

FINAL SINGLE POINT ENERGY      -340.043589632856

DIPOLE MOMENT
-------------
                                X             Y             Z
Electronic contribution:      0.90100       1.41105       1.56036
Nuclear contribution   :     -1.34253      -1.89197      -2.63412
                        -----------------------------------------
Total Dipole Moment    :     -0.44153      -0.48092      -1.07375
                        -----------------------------------------
Magnitude (a.u.)       :      1.25665
Magnitude (Debye)      :      3.19416

                             ****ORCA TERMINATED NORMALLY****
TOTAL RUN TIME: 0 days 0 hours 0 minutes 6 seconds 688 msec
