                         Program Version 3.0.3 - RELEASE   -
|  1> ! RI PBE def2-SVP def2-SVP/J NBO PAL2
|  2> % maxcore 2000
|  3> % output
|  4>     # printlevel mini
|  5>     print[ P_Basis ] 0
|  6>     print[ P_SCFInfo ] 1
|  7>     print[ P_SCFIterInfo ] 1
|  8>     print[ P_OrbEn ] 0
|  9>     print[ P_Cartesian ] 0
| 10> end
| 11> *xyz 0 1
| 12>  N        0.9297790000     1.2248630000    -1.1548050000
| 13>  N        2.2739550000     1.4407010000    -1.1115230000
| 14>  C        3.0516130000     0.4436810000    -1.2118110000
| 15>  C        4.5073060000     0.5716300000    -1.0369250000
| 16>  C        5.1425220000     1.9151790000    -0.8021050000
| 17>  C        5.0718580000     0.9245180000     0.3090700000
| 18>  O        6.2167880000     0.2368630000     0.6969150000
| 19>  H        0.4559830000     2.0428710000    -1.5045390000
| 20>  H        0.6485200000     0.3841540000    -1.6531760000
| 21>  H        2.6579630000    -0.5653420000    -1.3941320000
| 22>  H        5.1065400000    -0.1503620000    -1.5806680000
| 23>  H        4.4801150000     2.7706650000    -0.7711510000
| 24>  H        6.1127620000     2.0742920000    -1.2563940000
| 25>  H        4.3432240000     1.1049430000     1.0966670000
| 26>  H        6.7896630000     0.8491540000     1.1669670000
| 27> *
| 28>
| 29>                          ****END OF INPUT****
 Total Charge           Charge          ....    0
 Multiplicity           Mult            ....    1
 Number of Electrons    NEL             ....   54
 Basis Dimension        Dim             ....  138

MULLIKEN ATOMIC CHARGES
-----------------------
   0 N :   -0.051619
   1 N :   -0.122607
   2 C :   -0.019661
   3 C :   -0.061981
   4 C :    0.015178
   5 C :    0.046537
   6 O :   -0.237420
   7 H :    0.114331
   8 H :    0.082198
   9 H :   -0.030038
  10 H :    0.024532
  11 H :    0.038425
  12 H :    0.022073
  13 H :    0.019422
  14 H :    0.160631
Sum of atomic charges:   -0.0000000

LOEWDIN ATOMIC CHARGES
----------------------
   0 N :   -0.001088
   1 N :   -0.052747
   2 C :   -0.046959
   3 C :   -0.061762
   4 C :   -0.051037
   5 C :    0.043881
   6 O :   -0.099421
   7 H :    0.058476
   8 H :    0.039058
   9 H :   -0.006290
  10 H :    0.035144
  11 H :    0.029476
  12 H :    0.028221
  13 H :    0.010279
  14 H :    0.074768

  Mayer bond orders larger than 0.1
B(  0-N ,  1-N ) :   1.1002 B(  0-N ,  2-C ) :   0.1242 B(  0-N ,  7-H ) :   0.9631
B(  0-N ,  8-H ) :   0.9422 B(  1-N ,  2-C ) :   1.8800 B(  2-C ,  3-C ) :   1.0581
B(  2-C ,  9-H ) :   0.9349 B(  3-C ,  4-C ) :   0.9908 B(  3-C ,  5-C ) :   0.9111
B(  3-C , 10-H ) :   0.9269 B(  4-C ,  5-C ) :   1.0105 B(  4-C , 11-H ) :   0.9196
B(  4-C , 12-H ) :   0.9275 B(  5-C ,  6-O ) :   1.1337 B(  5-C , 13-H ) :   0.9391
B(  6-O , 14-H ) :   0.9799

FINAL SINGLE POINT ENERGY      -341.223488566675

DIPOLE MOMENT
-------------
                                X             Y             Z
Electronic contribution:      0.16322      -0.60490       0.74633
Nuclear contribution   :     -0.42194       0.78065      -1.06070
                        -----------------------------------------
Total Dipole Moment    :     -0.25873       0.17575      -0.31436
                        -----------------------------------------
Magnitude (a.u.)       :      0.44345
Magnitude (Debye)      :      1.12717

                             ****ORCA TERMINATED NORMALLY****
TOTAL RUN TIME: 0 days 0 hours 0 minutes 6 seconds 858 msec
