                         Program Version 3.0.3 - RELEASE   -
|  1> ! RI PBE def2-SVP def2-SVP/J NBO PAL2
|  2> % maxcore 2000
|  3> % output
|  4>     # printlevel mini
|  5>     print[ P_Basis ] 0
|  6>     print[ P_SCFInfo ] 1
|  7>     print[ P_SCFIterInfo ] 1
|  8>     print[ P_OrbEn ] 0
|  9>     print[ P_Cartesian ] 0
| 10> end
| 11> *xyz 0 1
| 12>  N        0.7447440000    -0.5807200000    -1.6354360000
| 13>  N        2.0630410000    -0.8580320000    -1.7288840000
| 14>  C        2.8605540000    -0.3395720000    -0.8881700000
| 15>  C        4.3202540000    -0.5480370000    -1.0165620000
| 16>  C        5.2445720000     0.6824520000    -0.9913750000
| 17>  C        5.9620910000    -0.0581040000     0.1350480000
| 18>  O        4.9229920000    -1.0455300000     0.1993870000
| 19>  H        0.1882730000    -1.3042400000    -2.0605250000
| 20>  H        0.4114510000    -0.3087720000    -0.7152280000
| 21>  H        2.5084930000     0.2760550000    -0.0495430000
| 22>  H        4.5070770000    -1.2226540000    -1.8591670000
| 23>  H        4.7383820000     1.5921750000    -0.6666950000
| 24>  H        5.8067040000     0.8839780000    -1.9017010000
| 25>  H        6.0827070000     0.4718930000     1.0837890000
| 26>  H        6.9218650000    -0.5033010000    -0.1514490000
| 27> *
| 28>
| 29>                          ****END OF INPUT****
 Total Charge           Charge          ....    0
 Multiplicity           Mult            ....    1
 Number of Electrons    NEL             ....   54
 Basis Dimension        Dim             ....  138

MULLIKEN ATOMIC CHARGES
-----------------------
   0 N :   -0.046446
   1 N :   -0.103048
   2 C :   -0.004650
   3 C :    0.105999
   4 C :   -0.022885
   5 C :    0.196050
   6 O :   -0.354164
   7 H :    0.120267
   8 H :    0.091066
   9 H :   -0.039229
  10 H :   -0.001053
  11 H :    0.011492
  12 H :    0.026875
  13 H :    0.013436
  14 H :    0.006290
Sum of atomic charges:   -0.0000000

LOEWDIN ATOMIC CHARGES
----------------------
   0 N :    0.013306
   1 N :   -0.031076
   2 C :   -0.066276
   3 C :    0.056454
   4 C :   -0.047380
   5 C :    0.081713
   6 O :   -0.184427
   7 H :    0.062303
   8 H :    0.042996
   9 H :   -0.010025
  10 H :    0.015714
  11 H :    0.025870
  12 H :    0.025028
  13 H :    0.008868
  14 H :    0.006931

  Mayer bond orders larger than 0.1
B(  0-N ,  1-N ) :   1.1274 B(  0-N ,  2-C ) :   0.1346 B(  0-N ,  7-H ) :   0.9612
B(  0-N ,  8-H ) :   0.9404 B(  1-N ,  2-C ) :   1.8514 B(  2-C ,  3-C ) :   1.0440
B(  2-C ,  9-H ) :   0.9140 B(  3-C ,  4-C ) :   1.0707 B(  3-C ,  6-O ) :   1.0180
B(  3-C , 10-H ) :   0.9070 B(  4-C ,  5-C ) :   1.1076 B(  4-C , 11-H ) :   0.9234
B(  4-C , 12-H ) :   0.9429 B(  5-C ,  6-O ) :   1.0261 B(  5-C , 13-H ) :   0.9435
B(  5-C , 14-H ) :   0.9336

FINAL SINGLE POINT ENERGY      -341.219329729576

DIPOLE MOMENT
-------------
                                X             Y             Z
Electronic contribution:     -1.95808      -2.43478      -0.24085
Nuclear contribution   :      1.46776       2.88957       0.33323
                        -----------------------------------------
Total Dipole Moment    :     -0.49032       0.45479       0.09238
                        -----------------------------------------
Magnitude (a.u.)       :      0.67511
Magnitude (Debye)      :      1.71600

                             ****ORCA TERMINATED NORMALLY****
TOTAL RUN TIME: 0 days 0 hours 0 minutes 7 seconds 52 msec
