                         Program Version 3.0.3 - RELEASE   -
|  1> ! RI PBE def2-SVP def2-SVP/J NBO PAL2
|  2> % maxcore 2000
|  3> % output
|  4>     # printlevel mini
|  5>     print[ P_Basis ] 0
|  6>     print[ P_SCFInfo ] 1
|  7>     print[ P_SCFIterInfo ] 1
|  8>     print[ P_OrbEn ] 0
|  9>     print[ P_Cartesian ] 0
| 10> end
| 11> *xyz 0 1
| 12>  N        0.8786860000    -0.0348840000     0.2558750000
| 13>  N        2.2319500000    -0.0932500000     0.2194840000
| 14>  C        2.8940670000     0.9828480000     0.3400900000
| 15>  C        4.3725000000     0.9698310000     0.3865380000
| 16>  C        5.1396450000     1.9553660000    -0.5139620000
| 17>  O        5.8793150000     2.4763900000     0.5951070000
| 18>  C        5.0735830000     1.7396750000     1.5216450000
| 19>  H        0.4717370000    -0.8188690000    -0.2281220000
| 20>  H        0.4682990000     0.8521130000    -0.0219960000
| 21>  H        2.3895730000     1.9568650000     0.4238950000
| 22>  H        4.7234090000    -0.0571840000     0.2902830000
| 23>  H        4.5089610000     2.7236220000    -0.9789570000
| 24>  H        5.7889040000     1.5143730000    -1.2754400000
| 25>  H        4.4094570000     2.3975760000     2.0957420000
| 26>  H        5.6757220000     1.1440280000     2.2131170000
| 27> *
| 28>
| 29>                          ****END OF INPUT****
 Total Charge           Charge          ....    0
 Multiplicity           Mult            ....    1
 Number of Electrons    NEL             ....   54
 Basis Dimension        Dim             ....  138

MULLIKEN ATOMIC CHARGES
-----------------------
   0 N :   -0.048676
   1 N :   -0.108696
   2 C :   -0.009187
   3 C :   -0.210268
   4 C :    0.261773
   5 O :   -0.365528
   6 C :    0.260847
   7 H :    0.118253
   8 H :    0.086335
   9 H :   -0.032421
  10 H :    0.020188
  11 H :   -0.003216
  12 H :    0.014710
  13 H :   -0.000794
  14 H :    0.016682
Sum of atomic charges:   -0.0000000

LOEWDIN ATOMIC CHARGES
----------------------
   0 N :    0.007543
   1 N :   -0.039841
   2 C :   -0.057893
   3 C :   -0.066808
   4 C :    0.090602
   5 O :   -0.186422
   6 C :    0.091049
   7 H :    0.061147
   8 H :    0.040917
   9 H :   -0.011016
  10 H :    0.036087
  11 H :    0.004526
  12 H :    0.011738
  13 H :    0.005777
  14 H :    0.012595

  Mayer bond orders larger than 0.1
B(  0-N ,  1-N ) :   1.1164 B(  0-N ,  2-C ) :   0.1334 B(  0-N ,  7-H ) :   0.9625
B(  0-N ,  8-H ) :   0.9412 B(  1-N ,  2-C ) :   1.8647 B(  2-C ,  3-C ) :   1.0260
B(  2-C ,  9-H ) :   0.9205 B(  3-C ,  4-C ) :   1.0550 B(  3-C ,  6-C ) :   1.0604
B(  3-C , 10-H ) :   0.9084 B(  4-C ,  5-O ) :   1.0388 B(  4-C , 11-H ) :   0.9276
B(  4-C , 12-H ) :   0.9353 B(  5-O ,  6-C ) :   1.0379 B(  6-C , 13-H ) :   0.9276
B(  6-C , 14-H ) :   0.9345

FINAL SINGLE POINT ENERGY      -341.215627958859

DIPOLE MOMENT
-------------
                                X             Y             Z
Electronic contribution:      0.52461      -0.58184       0.15291
Nuclear contribution   :     -1.51961       0.46370      -0.60068
                        -----------------------------------------
Total Dipole Moment    :     -0.99500      -0.11814      -0.44777
                        -----------------------------------------
Magnitude (a.u.)       :      1.09749
Magnitude (Debye)      :      2.78960

                             ****ORCA TERMINATED NORMALLY****
TOTAL RUN TIME: 0 days 0 hours 0 minutes 7 seconds 53 msec
