                         Program Version 3.0.3 - RELEASE   -
|  1> ! RI PBE def2-SVP def2-SVP/J NBO PAL2
|  2> % maxcore 2000
|  3> % output
|  4>     # printlevel mini
|  5>     print[ P_Basis ] 0
|  6>     print[ P_SCFInfo ] 1
|  7>     print[ P_SCFIterInfo ] 1
|  8>     print[ P_OrbEn ] 0
|  9>     print[ P_Cartesian ] 0
| 10> end
| 11> *xyz 0 1
| 12>  N        0.6930310000     1.0550290000    -0.8509590000
| 13>  N        2.0262710000     1.3052210000    -0.7729880000
| 14>  C        2.8301180000     0.4877080000    -1.3148220000
| 15>  C        4.3055240000     0.6732690000    -1.1971680000
| 16>  C        4.9675090000     0.8350730000    -2.5377010000
| 17>  C        6.2903670000     0.2902920000    -2.8198170000
| 18>  O        5.1231900000    -0.3454950000    -3.3147910000
| 19>  H        0.1660830000     1.9099460000    -0.7725960000
| 20>  H        0.4019070000     0.4928950000    -1.6458600000
| 21>  H        2.4707740000    -0.3786730000    -1.8852090000
| 22>  H        4.7525990000    -0.1939440000    -0.6970390000
| 23>  H        4.4960120000     1.5558510000    -0.5807940000
| 24>  H        4.6406220000     1.6980130000    -3.1173170000
| 25>  H        6.8173470000    -0.2508620000    -2.0370220000
| 26>  H        6.9201270000     0.7580550000    -3.5724270000
| 27> *
| 28>
| 29>                          ****END OF INPUT****
 Total Charge           Charge          ....    0
 Multiplicity           Mult            ....    1
 Number of Electrons    NEL             ....   54
 Basis Dimension        Dim             ....  138

MULLIKEN ATOMIC CHARGES
-----------------------
   0 N :   -0.053630
   1 N :   -0.113815
   2 C :   -0.105217
   3 C :    0.178587
   4 C :   -0.043206
   5 C :    0.145479
   6 O :   -0.294601
   7 H :    0.115777
   8 H :    0.085807
   9 H :   -0.012296
  10 H :    0.007506
  11 H :    0.017038
  12 H :    0.018683
  13 H :    0.023621
  14 H :    0.030265
Sum of atomic charges:   -0.0000000

LOEWDIN ATOMIC CHARGES
----------------------
   0 N :    0.002153
   1 N :   -0.045317
   2 C :   -0.051877
   3 C :   -0.054733
   4 C :    0.040585
   5 C :    0.054531
   6 O :   -0.162734
   7 H :    0.059458
   8 H :    0.040476
   9 H :   -0.005275
  10 H :    0.037471
  11 H :    0.040674
  12 H :    0.015333
  13 H :    0.013517
  14 H :    0.015738

  Mayer bond orders larger than 0.1
B(  0-N ,  1-N ) :   1.1093 B(  0-N ,  2-C ) :   0.1304 B(  0-N ,  7-H ) :   0.9633
B(  0-N ,  8-H ) :   0.9421 B(  1-N ,  2-C ) :   1.8858 B(  2-C ,  3-C ) :   1.0434
B(  2-C ,  9-H ) :   0.9357 B(  3-C ,  4-C ) :   1.0359 B(  3-C , 10-H ) :   0.8941
B(  3-C , 11-H ) :   0.9084 B(  4-C ,  5-C ) :   1.0824 B(  4-C ,  6-O ) :   0.9674
B(  4-C , 12-H ) :   0.9353 B(  5-C ,  6-O ) :   1.0064 B(  5-C , 13-H ) :   0.9287
B(  5-C , 14-H ) :   0.9367

FINAL SINGLE POINT ENERGY      -341.216535076020

DIPOLE MOMENT
-------------
                                X             Y             Z
Electronic contribution:     -1.06118      -0.33600      -0.58657
Nuclear contribution   :      0.88634       0.69286       0.41346
                        -----------------------------------------
Total Dipole Moment    :     -0.17483       0.35686      -0.17311
                        -----------------------------------------
Magnitude (a.u.)       :      0.43346
Magnitude (Debye)      :      1.10176

                             ****ORCA TERMINATED NORMALLY****
TOTAL RUN TIME: 0 days 0 hours 0 minutes 6 seconds 951 msec
