                         Program Version 3.0.3 - RELEASE   -
|  1> ! RI PBE def2-SVP def2-SVP/J NBO PAL2
|  2> % maxcore 2000
|  3> % output
|  4>     # printlevel mini
|  5>     print[ P_Basis ] 0
|  6>     print[ P_SCFInfo ] 1
|  7>     print[ P_SCFIterInfo ] 1
|  8>     print[ P_OrbEn ] 0
|  9>     print[ P_Cartesian ] 0
| 10> end
| 11> *xyz 0 1
| 12>  N        0.9997310000    -0.2224110000    -1.5465440000
| 13>  N        2.3614510000    -0.2420420000    -1.5034460000
| 14>  C        2.9636710000     0.6716910000    -0.8603940000
| 15>  C        4.4518030000     0.7660590000    -0.8586240000
| 16>  C        4.9979570000     1.9955120000    -1.5894040000
| 17>  C        4.7884680000     1.9703610000    -3.0952120000
| 18>  O        3.4431060000     2.1183270000    -3.4895120000
| 19>  H        0.6387970000    -1.1512800000    -1.6959740000
| 20>  H        0.5495190000     0.2409500000    -0.7620760000
| 21>  H        2.4016190000     1.4366710000    -0.3063380000
| 22>  H        4.8536320000    -0.1462810000    -1.3090940000
| 23>  H        4.7976500000     0.7947280000     0.1814280000
| 24>  H        6.0740550000     2.0653680000    -1.3950580000
| 25>  H        4.5440270000     2.9074840000    -1.1862520000
| 26>  H        5.2211700000     1.0482670000    -3.5109760000
| 27>  H        5.3254700000     2.8082920000    -3.5476840000
| 28>  H        2.9620540000     1.3262930000    -3.2297480000
| 29> *
| 30>
| 31>                          ****END OF INPUT****
 Total Charge           Charge          ....    0
 Multiplicity           Mult            ....    1
 Number of Electrons    NEL             ....   56
 Basis Dimension        Dim             ....  148

MULLIKEN ATOMIC CHARGES
-----------------------
   0 N :   -0.056321
   1 N :   -0.138428
   2 C :   -0.112731
   3 C :    0.080611
   4 C :   -0.052923
   5 C :    0.174877
   6 O :   -0.290287
   7 H :    0.117477
   8 H :    0.087556
   9 H :   -0.017856
  10 H :    0.009594
  11 H :    0.016267
  12 H :    0.009774
  13 H :    0.009854
  14 H :   -0.006115
  15 H :    0.008272
  16 H :    0.160378
Sum of atomic charges:   -0.0000000

LOEWDIN ATOMIC CHARGES
----------------------
   0 N :   -0.001264
   1 N :   -0.059825
   2 C :   -0.051215
   3 C :   -0.052587
   4 C :   -0.061368
   5 C :    0.055761
   6 O :   -0.122451
   7 H :    0.060267
   8 H :    0.041334
   9 H :   -0.007434
  10 H :    0.031305
  11 H :    0.034443
  12 H :    0.028257
  13 H :    0.023520
  14 H :    0.003714
  15 H :    0.019904
  16 H :    0.057641

  Mayer bond orders larger than 0.1
B(  0-N ,  1-N ) :   1.0958 B(  0-N ,  2-C ) :   0.1305 B(  0-N ,  7-H ) :   0.9627
B(  0-N ,  8-H ) :   0.9430 B(  1-N ,  2-C ) :   1.8249 B(  2-C ,  3-C ) :   1.0598
B(  2-C ,  9-H ) :   0.9267 B(  3-C ,  4-C ) :   1.0861 B(  3-C , 10-H ) :   0.9224
B(  3-C , 11-H ) :   0.9120 B(  4-C ,  5-C ) :   1.0646 B(  4-C , 12-H ) :   0.9170
B(  4-C , 13-H ) :   0.9291 B(  5-C ,  6-O ) :   1.0797 B(  5-C , 14-H ) :   0.9370
B(  5-C , 15-H ) :   0.9380 B(  6-O , 16-H ) :   0.9717

FINAL SINGLE POINT ENERGY      -342.447708584854

DIPOLE MOMENT
-------------
                                X             Y             Z
Electronic contribution:     -3.48107      -1.55071      -1.00120
Nuclear contribution   :      3.21705       1.10636       1.92385
                        -----------------------------------------
Total Dipole Moment    :     -0.26402      -0.44435       0.92265
                        -----------------------------------------
Magnitude (a.u.)       :      1.05756
Magnitude (Debye)      :      2.68811

                             ****ORCA TERMINATED NORMALLY****
TOTAL RUN TIME: 0 days 0 hours 0 minutes 7 seconds 895 msec
