                         Program Version 3.0.3 - RELEASE   -
|  1> ! RI PBE def2-SVP def2-SVP/J NBO PAL2
|  2> % maxcore 2000
|  3> % output
|  4>     # printlevel mini
|  5>     print[ P_Basis ] 0
|  6>     print[ P_SCFInfo ] 1
|  7>     print[ P_SCFIterInfo ] 1
|  8>     print[ P_OrbEn ] 0
|  9>     print[ P_Cartesian ] 0
| 10> end
| 11> *xyz 0 1
| 12>  N        0.8281250000    -0.0230340000    -0.4324840000
| 13>  N        2.1652360000     0.0950840000    -0.3277000000
| 14>  C        2.8974150000    -0.4477660000    -1.2227280000
| 15>  C        4.3344200000    -0.4087060000    -1.1134090000
| 16>  C        5.1710130000    -0.9432870000    -2.0077790000
| 17>  C        6.6548040000    -0.9036880000    -1.8879100000
| 18>  O        7.2298940000    -2.1992260000    -1.8857170000
| 19>  H        0.3480760000     0.7076110000     0.0663860000
| 20>  H        0.4573760000    -0.1920820000    -1.3627060000
| 21>  H        2.4570870000    -0.9585170000    -2.0889920000
| 22>  H        4.7245160000     0.1028920000    -0.2363510000
| 23>  H        4.7749110000    -1.4632210000    -2.8785640000
| 24>  H        6.9423550000    -0.3368310000    -0.9920030000
| 25>  H        7.0966870000    -0.3978180000    -2.7519200000
| 26>  H        6.8072940000    -2.7026090000    -1.1842020000
| 27> *
| 28>
| 29>                          ****END OF INPUT****
 Total Charge           Charge          ....    0
 Multiplicity           Mult            ....    1
 Number of Electrons    NEL             ....   54
 Basis Dimension        Dim             ....  138

MULLIKEN ATOMIC CHARGES
-----------------------
   0 N :   -0.037469
   1 N :   -0.112409
   2 C :   -0.035019
   3 C :    0.043893
   4 C :   -0.150983
   5 C :    0.257051
   6 O :   -0.295557
   7 H :    0.122288
   8 H :    0.090533
   9 H :   -0.032631
  10 H :   -0.007244
  11 H :   -0.003216
  12 H :   -0.003943
  13 H :    0.015441
  14 H :    0.149264
Sum of atomic charges:   -0.0000000

LOEWDIN ATOMIC CHARGES
----------------------
   0 N :    0.024417
   1 N :   -0.039105
   2 C :   -0.057784
   3 C :   -0.043459
   4 C :   -0.069509
   5 C :    0.054235
   6 O :   -0.124387
   7 H :    0.063443
   8 H :    0.042735
   9 H :   -0.004870
  10 H :    0.030693
  11 H :    0.022259
  12 H :    0.007895
  13 H :    0.027986
  14 H :    0.065450

  Mayer bond orders larger than 0.1
B(  0-N ,  1-N ) :   1.1364 B(  0-N ,  2-C ) :   0.1170 B(  0-N ,  7-H ) :   0.9604
B(  0-N ,  8-H ) :   0.9387 B(  1-N ,  2-C ) :   1.7614 B(  2-C ,  3-C ) :   1.1373
B(  2-C ,  9-H ) :   0.9364 B(  3-C ,  4-C ) :   1.7225 B(  3-C , 10-H ) :   0.9604
B(  4-C ,  5-C ) :   1.0650 B(  4-C , 11-H ) :   0.9600 B(  5-C ,  6-O ) :   1.0246
B(  5-C , 12-H ) :   0.9351 B(  5-C , 13-H ) :   0.9145 B(  6-O , 14-H ) :   0.9854

FINAL SINGLE POINT ENERGY      -341.235234628162

DIPOLE MOMENT
-------------
                                X             Y             Z
Electronic contribution:     -1.15706      -0.14429       1.10186
Nuclear contribution   :      0.03264       0.46193      -1.18668
                        -----------------------------------------
Total Dipole Moment    :     -1.12442       0.31764      -0.08482
                        -----------------------------------------
Magnitude (a.u.)       :      1.17150
Magnitude (Debye)      :      2.97772

                             ****ORCA TERMINATED NORMALLY****
TOTAL RUN TIME: 0 days 0 hours 0 minutes 6 seconds 819 msec
