                         Program Version 3.0.3 - RELEASE   -
|  1> ! RI PBE def2-SVP def2-SVP/J NBO PAL2
|  2> % maxcore 2000
|  3> % output
|  4>     # printlevel mini
|  5>     print[ P_Basis ] 0
|  6>     print[ P_SCFInfo ] 1
|  7>     print[ P_SCFIterInfo ] 1
|  8>     print[ P_OrbEn ] 0
|  9>     print[ P_Cartesian ] 0
| 10> end
| 11> *xyz 0 1
| 12>  N        0.5840350000     0.9115660000     0.1256530000
| 13>  N        1.8890000000     0.5998970000     0.0160780000
| 14>  C        2.7565660000     1.4951630000     0.2769990000
| 15>  C        4.1941250000     1.2238970000     0.2746730000
| 16>  C        4.7114410000    -0.0042070000     0.2597280000
| 17>  C        5.0544330000     2.4598120000     0.3007910000
| 18>  O        6.4226460000     2.2265630000     0.4933820000
| 19>  H        0.0094390000     0.3172280000    -0.4490530000
| 20>  H        0.3466890000     1.8970520000     0.0546210000
| 21>  H        2.4424280000     2.5209340000     0.5168010000
| 22>  H        4.0669700000    -0.8739420000     0.2676530000
| 23>  H        5.7824540000    -0.1561890000     0.2114050000
| 24>  H        4.6572920000     3.1467240000     1.0657470000
| 25>  H        4.9683160000     2.9857870000    -0.6565450000
| 26>  H        6.5237570000     1.7121150000     1.2997770000
| 27> *
| 28>
| 29>                          ****END OF INPUT****
 Total Charge           Charge          ....    0
 Multiplicity           Mult            ....    1
 Number of Electrons    NEL             ....   54
 Basis Dimension        Dim             ....  138

MULLIKEN ATOMIC CHARGES
-----------------------
   0 N :   -0.034227
   1 N :   -0.094333
   2 C :   -0.032478
   3 C :   -0.134473
   4 C :   -0.039218
   5 C :    0.225899
   6 O :   -0.272234
   7 H :    0.122240
   8 H :    0.087294
   9 H :   -0.043407
  10 H :    0.020746
  11 H :    0.003713
  12 H :    0.007429
  13 H :    0.028000
  14 H :    0.155048
Sum of atomic charges:   -0.0000000

LOEWDIN ATOMIC CHARGES
----------------------
   0 N :    0.025730
   1 N :   -0.027697
   2 C :   -0.060539
   3 C :   -0.076587
   4 C :   -0.059175
   5 C :    0.056434
   6 O :   -0.106411
   7 H :    0.063603
   8 H :    0.041453
   9 H :   -0.009994
  10 H :    0.025316
  11 H :    0.015783
  12 H :    0.010373
  13 H :    0.033110
  14 H :    0.068600

  Mayer bond orders larger than 0.1
B(  0-N ,  1-N ) :   1.1401 B(  0-N ,  2-C ) :   0.1274 B(  0-N ,  7-H ) :   0.9601
B(  0-N ,  8-H ) :   0.9374 B(  1-N ,  2-C ) :   1.8189 B(  2-C ,  3-C ) :   1.0706
B(  2-C ,  9-H ) :   0.9233 B(  3-C ,  4-C ) :   1.9311 B(  3-C ,  5-C ) :   0.9855
B(  4-C , 10-H ) :   0.9261 B(  4-C , 11-H ) :   0.9204 B(  5-C ,  6-O ) :   1.0934
B(  5-C , 12-H ) :   0.9247 B(  5-C , 13-H ) :   0.9193 B(  6-O , 14-H ) :   0.9750

FINAL SINGLE POINT ENERGY      -341.229489494475

DIPOLE MOMENT
-------------
                                X             Y             Z
Electronic contribution:     -0.49400      -0.66241      -0.17375
Nuclear contribution   :     -0.49606       1.05388       0.25252
                        -----------------------------------------
Total Dipole Moment    :     -0.99006       0.39147       0.07877
                        -----------------------------------------
Magnitude (a.u.)       :      1.06756
Magnitude (Debye)      :      2.71351

                             ****ORCA TERMINATED NORMALLY****
TOTAL RUN TIME: 0 days 0 hours 0 minutes 6 seconds 821 msec
