                         Program Version 3.0.3 - RELEASE   -
|  1> ! RI PBE def2-SVP def2-SVP/J NBO PAL2
|  2> % maxcore 2000
|  3> % output
|  4>     # printlevel mini
|  5>     print[ P_Basis ] 0
|  6>     print[ P_SCFInfo ] 1
|  7>     print[ P_SCFIterInfo ] 1
|  8>     print[ P_OrbEn ] 0
|  9>     print[ P_Cartesian ] 0
| 10> end
| 11> *xyz 0 1
| 12>  N        0.9258670000    -0.0417120000     0.3345530000
| 13>  N        2.2593800000     0.0518010000     0.2978720000
| 14>  C        2.9447850000    -1.0166190000     0.4640070000
| 15>  C        4.3580140000    -0.9844240000     0.5002970000
| 16>  C        5.5628800000    -1.0396430000     0.5347320000
| 17>  C        7.0166550000    -1.0400510000     0.6070230000
| 18>  O        7.5189060000    -1.0454160000     1.9282390000
| 19>  H        0.4722870000     0.7293080000    -0.1251510000
| 20>  H        0.5116080000    -0.9499000000     0.1501380000
| 21>  H        2.4588520000    -1.9913830000     0.5894010000
| 22>  H        7.3993530000    -0.1795700000     0.0405460000
| 23>  H        7.4125040000    -1.9402710000     0.1294990000
| 24>  H        7.0652790000    -0.3539600000     2.4181940000
| 25> *
| 26>
| 27>                          ****END OF INPUT****
 Total Charge           Charge          ....    0
 Multiplicity           Mult            ....    1
 Number of Electrons    NEL             ....   52
 Basis Dimension        Dim             ....  128

MULLIKEN ATOMIC CHARGES
-----------------------
   0 N :   -0.033379
   1 N :   -0.099583
   2 C :   -0.113087
   3 C :    0.007127
   4 C :   -0.178655
   5 C :    0.263525
   6 O :   -0.284064
   7 H :    0.127792
   8 H :    0.093419
   9 H :    0.002279
  10 H :    0.028295
  11 H :    0.029900
  12 H :    0.156430
Sum of atomic charges:   -0.0000000

LOEWDIN ATOMIC CHARGES
----------------------
   0 N :    0.036117
   1 N :   -0.018436
   2 C :   -0.077397
   3 C :   -0.055743
   4 C :   -0.074137
   5 C :    0.049255
   6 O :   -0.116713
   7 H :    0.066722
   8 H :    0.044407
   9 H :    0.005759
  10 H :    0.027815
  11 H :    0.041945
  12 H :    0.070407

  Mayer bond orders larger than 0.1
B(  0-N ,  1-N ) :   1.1619 B(  0-N ,  2-C ) :   0.1320 B(  0-N ,  7-H ) :   0.9599
B(  0-N ,  8-H ) :   0.9348 B(  1-N ,  2-C ) :   1.7732 B(  2-C ,  3-C ) :   1.0423
B(  2-C ,  9-H ) :   0.9277 B(  3-C ,  4-C ) :   2.5074 B(  4-C ,  5-C ) :   1.0255
B(  5-C ,  6-O ) :   1.0588 B(  5-C , 10-H ) :   0.9187 B(  5-C , 11-H ) :   0.9001
B(  6-O , 12-H ) :   0.9831

FINAL SINGLE POINT ENERGY      -339.988582671751

DIPOLE MOMENT
-------------
                                X             Y             Z
Electronic contribution:     -0.32314       0.41460       0.42591
Nuclear contribution   :     -0.85852      -0.35811      -0.89635
                        -----------------------------------------
Total Dipole Moment    :     -1.18166       0.05649      -0.47044
                        -----------------------------------------
Magnitude (a.u.)       :      1.27311
Magnitude (Debye)      :      3.23600

                             ****ORCA TERMINATED NORMALLY****
TOTAL RUN TIME: 0 days 0 hours 0 minutes 5 seconds 865 msec
