                         Program Version 3.0.3 - RELEASE   -
|  1> ! RI PBE def2-SVP def2-SVP/J NBO PAL2
|  2> % maxcore 2000
|  3> % output
|  4>     # printlevel mini
|  5>     print[ P_Basis ] 0
|  6>     print[ P_SCFInfo ] 1
|  7>     print[ P_SCFIterInfo ] 1
|  8>     print[ P_OrbEn ] 0
|  9>     print[ P_Cartesian ] 0
| 10> end
| 11> *xyz 0 1
| 12>  N        0.5302350000     0.3167430000    -1.6003790000
| 13>  N        1.1328660000    -0.3110110000    -0.5197240000
| 14>  C        2.3468880000    -1.0815710000    -0.7015510000
| 15>  C        2.1161820000    -2.2927390000    -1.5472820000
| 16>  C        2.6737110000    -2.4932210000    -2.7329400000
| 17>  C        0.5272620000    -0.2056440000     0.6921180000
| 18>  O        0.9327340000    -0.7124350000     1.7124420000
| 19>  H        0.3306660000    -0.3656670000    -2.3246550000
| 20>  H        1.1587670000     1.0126190000    -1.9890670000
| 21>  H        2.6715140000    -1.3653910000     0.3029700000
| 22>  H        3.1184310000    -0.4448880000    -1.1503400000
| 23>  H        1.4321870000    -3.0318630000    -1.1355410000
| 24>  H        3.3618430000    -1.7708960000    -3.1626330000
| 25>  H        2.4810100000    -3.3907600000    -3.3090590000
| 26>  H       -0.3852040000     0.4099050000     0.6219600000
| 27> *
| 28>
| 29>                          ****END OF INPUT****
 Total Charge           Charge          ....    0
 Multiplicity           Mult            ....    1
 Number of Electrons    NEL             ....   54
 Basis Dimension        Dim             ....  138

MULLIKEN ATOMIC CHARGES
-----------------------
   0 N :   -0.059813
   1 N :   -0.257579
   2 C :    0.195889
   3 C :   -0.111770
   4 C :   -0.035065
   5 C :    0.185133
   6 O :   -0.236209
   7 H :    0.107089
   8 H :    0.104789
   9 H :    0.034100
  10 H :    0.006183
  11 H :    0.021696
  12 H :    0.022809
  13 H :    0.036339
  14 H :   -0.013591
Sum of atomic charges:    0.0000000

LOEWDIN ATOMIC CHARGES
----------------------
   0 N :   -0.016271
   1 N :   -0.003633
   2 C :    0.018322
   3 C :   -0.041542
   4 C :   -0.058759
   5 C :    0.046580
   6 O :   -0.183588
   7 H :    0.051736
   8 H :    0.052286
   9 H :    0.040581
  10 H :    0.021027
  11 H :    0.032683
  12 H :    0.022563
  13 H :    0.029267
  14 H :   -0.011252

  Mayer bond orders larger than 0.1
B(  0-N ,  1-N ) :   1.0332 B(  0-N ,  7-H ) :   0.9633 B(  0-N ,  8-H ) :   0.9635
B(  1-N ,  2-C ) :   0.9486 B(  1-N ,  5-C ) :   1.1494 B(  1-N ,  6-O ) :   0.1030
B(  2-C ,  3-C ) :   1.0805 B(  2-C ,  9-H ) :   0.8850 B(  2-C , 10-H ) :   0.9298
B(  3-C ,  4-C ) :   1.9762 B(  3-C , 11-H ) :   0.9590 B(  4-C , 12-H ) :   0.9512
B(  4-C , 13-H ) :   0.9446 B(  5-C ,  6-O ) :   2.0102 B(  5-C , 14-H ) :   0.9214

FINAL SINGLE POINT ENERGY      -341.254470934709

DIPOLE MOMENT
-------------
                                X             Y             Z
Electronic contribution:     -2.08421       1.50178       4.85066
Nuclear contribution   :      2.44272      -1.38758      -6.41226
                        -----------------------------------------
Total Dipole Moment    :      0.35851       0.11419      -1.56161
                        -----------------------------------------
Magnitude (a.u.)       :      1.60629
Magnitude (Debye)      :      4.08287

                             ****ORCA TERMINATED NORMALLY****
TOTAL RUN TIME: 0 days 0 hours 0 minutes 6 seconds 919 msec
