                         Program Version 3.0.3 - RELEASE   -
|  1> ! RI PBE def2-SVP def2-SVP/J NBO PAL2
|  2> % maxcore 2000
|  3> % output
|  4>     # printlevel mini
|  5>     print[ P_Basis ] 0
|  6>     print[ P_SCFInfo ] 1
|  7>     print[ P_SCFIterInfo ] 1
|  8>     print[ P_OrbEn ] 0
|  9>     print[ P_Cartesian ] 0
| 10> end
| 11> *xyz 0 1
| 12>  N        1.0889690000    -0.3342890000    -0.0350310000
| 13>  N        2.4389550000    -0.4044830000     0.2656340000
| 14>  C        3.3652030000     0.5890460000    -0.2363030000
| 15>  C        2.9694050000     1.9433850000     0.1263650000
| 16>  C        2.6126700000     3.0518700000     0.4160710000
| 17>  C        2.8596520000    -1.3833690000     1.1114150000
| 18>  O        4.0030730000    -1.5369690000     1.4698350000
| 19>  H        0.9486640000    -0.4283670000    -1.0354550000
| 20>  H        0.7201730000     0.5651830000     0.2583330000
| 21>  H        3.4466320000     0.5124190000    -1.3278950000
| 22>  H        4.3410850000     0.3414280000     0.1904770000
| 23>  H        2.3168510000     4.0396750000     0.6814510000
| 24>  H        2.0156570000    -2.0231200000     1.4176940000
| 25> *
| 26>
| 27>                          ****END OF INPUT****
 Total Charge           Charge          ....    0
 Multiplicity           Mult            ....    1
 Number of Electrons    NEL             ....   52
 Basis Dimension        Dim             ....  128

MULLIKEN ATOMIC CHARGES
-----------------------
   0 N :   -0.062028
   1 N :   -0.259084
   2 C :    0.233686
   3 C :    0.259614
   4 C :   -0.453155
   5 C :    0.190868
   6 O :   -0.230350
   7 H :    0.108332
   8 H :    0.114510
   9 H :    0.045386
  10 H :    0.050843
  11 H :    0.009768
  12 H :   -0.008390
Sum of atomic charges:    0.0000000

LOEWDIN ATOMIC CHARGES
----------------------
   0 N :   -0.013183
   1 N :   -0.003032
   2 C :    0.013824
   3 C :   -0.039809
   4 C :   -0.069904
   5 C :    0.052614
   6 O :   -0.177250
   7 H :    0.054232
   8 H :    0.054967
   9 H :    0.042274
  10 H :    0.054248
  11 H :    0.039173
  12 H :   -0.008155

  Mayer bond orders larger than 0.1
B(  0-N ,  1-N ) :   1.0377 B(  0-N ,  7-H ) :   0.9639 B(  0-N ,  8-H ) :   0.9601
B(  1-N ,  2-C ) :   0.9543 B(  1-N ,  5-C ) :   1.1429 B(  1-N ,  6-O ) :   0.1036
B(  2-C ,  3-C ) :   1.0584 B(  2-C ,  9-H ) :   0.9094 B(  2-C , 10-H ) :   0.8669
B(  3-C ,  4-C ) :   2.3810 B(  3-C , 11-H ) :  -0.1035 B(  4-C , 11-H ) :   1.0945
B(  5-C ,  6-O ) :   2.0144 B(  5-C , 12-H ) :   0.9218

FINAL SINGLE POINT ENERGY      -340.008173493150

DIPOLE MOMENT
-------------
                                X             Y             Z
Electronic contribution:      1.59618      -0.88128       1.39956
Nuclear contribution   :     -2.50019       1.72522      -2.33759
                        -----------------------------------------
Total Dipole Moment    :     -0.90400       0.84395      -0.93803
                        -----------------------------------------
Magnitude (a.u.)       :      1.55221
Magnitude (Debye)      :      3.94541

                             ****ORCA TERMINATED NORMALLY****
TOTAL RUN TIME: 0 days 0 hours 0 minutes 6 seconds 246 msec
