                         Program Version 3.0.3 - RELEASE   -
|  1> ! RI PBE def2-SVP def2-SVP/J NBO PAL2
|  2> % maxcore 2000
|  3> % output
|  4>     # printlevel mini
|  5>     print[ P_Basis ] 0
|  6>     print[ P_SCFInfo ] 1
|  7>     print[ P_SCFIterInfo ] 1
|  8>     print[ P_OrbEn ] 0
|  9>     print[ P_Cartesian ] 0
| 10> end
| 11> *xyz 0 1
| 12>  N        1.0683990000    -0.2316120000     0.0523720000
| 13>  N        2.3955760000    -0.0040060000     0.0990010000
| 14>  C        2.8289670000     1.1794340000    -0.1390650000
| 15>  C        1.9117900000     2.3229160000    -0.4701680000
| 16>  O        0.9819000000     2.5308790000     0.5894810000
| 17>  C        4.2736410000     1.4177180000    -0.1650600000
| 18>  C        5.2230460000     0.4858640000    -0.1178140000
| 19>  H        0.4816000000     0.5400170000     0.3527660000
| 20>  H        0.8406700000    -1.1089120000     0.4904930000
| 21>  H        1.3756130000     2.0726710000    -1.3988500000
| 22>  H        2.4977840000     3.2300030000    -0.6500260000
| 23>  H        0.3640010000     3.2140030000     0.3168260000
| 24>  H        4.5686850000     2.4619790000    -0.2323880000
| 25>  H        4.9713460000    -0.5664640000    -0.0565010000
| 26>  H        6.2709010000     0.7585110000    -0.1333690000
| 27> *
| 28>
| 29>                          ****END OF INPUT****
 Total Charge           Charge          ....    0
 Multiplicity           Mult            ....    1
 Number of Electrons    NEL             ....   54
 Basis Dimension        Dim             ....  138

MULLIKEN ATOMIC CHARGES
-----------------------
   0 N :   -0.041099
   1 N :   -0.104530
   2 C :   -0.173664
   3 C :    0.203433
   4 O :   -0.278236
   5 C :    0.004332
   6 C :   -0.015722
   7 H :    0.098764
   8 H :    0.116810
   9 H :    0.017449
  10 H :   -0.007262
  11 H :    0.161705
  12 H :   -0.023141
  13 H :    0.025068
  14 H :    0.016091
Sum of atomic charges:   -0.0000000

LOEWDIN ATOMIC CHARGES
----------------------
   0 N :    0.027676
   1 N :   -0.031628
   2 C :   -0.092129
   3 C :    0.044638
   4 O :   -0.120043
   5 C :   -0.048382
   6 C :   -0.047543
   7 H :    0.033897
   8 H :    0.061401
   9 H :    0.015526
  10 H :    0.012939
  11 H :    0.073919
  12 H :    0.023054
  13 H :    0.024255
  14 H :    0.022421

  Mayer bond orders larger than 0.1
B(  0-N ,  1-N ) :   1.1541 B(  0-N ,  7-H ) :   0.9110 B(  0-N ,  8-H ) :   0.9631
B(  1-N ,  2-C ) :   1.8425 B(  2-C ,  3-C ) :   1.0306 B(  2-C ,  5-C ) :   1.1117
B(  3-C ,  4-O ) :   1.0441 B(  3-C ,  9-H ) :   0.9102 B(  3-C , 10-H ) :   0.9136
B(  4-O , 11-H ) :   0.9735 B(  5-C ,  6-C ) :   1.9339 B(  5-C , 12-H ) :   0.9431
B(  6-C , 13-H ) :   0.9370 B(  6-C , 14-H ) :   0.9341

FINAL SINGLE POINT ENERGY      -341.229984315519

DIPOLE MOMENT
-------------
                                X             Y             Z
Electronic contribution:     -1.71034      -0.86051       1.03037
Nuclear contribution   :      0.76795       1.49692      -1.18394
                        -----------------------------------------
Total Dipole Moment    :     -0.94239       0.63641      -0.15357
                        -----------------------------------------
Magnitude (a.u.)       :      1.14748
Magnitude (Debye)      :      2.91665

                             ****ORCA TERMINATED NORMALLY****
TOTAL RUN TIME: 0 days 0 hours 0 minutes 7 seconds 123 msec
