                         Program Version 3.0.3 - RELEASE   -
|  1> ! RI PBE def2-SVP def2-SVP/J NBO PAL2
|  2> % maxcore 2000
|  3> % output
|  4>     # printlevel mini
|  5>     print[ P_Basis ] 0
|  6>     print[ P_SCFInfo ] 1
|  7>     print[ P_SCFIterInfo ] 1
|  8>     print[ P_OrbEn ] 0
|  9>     print[ P_Cartesian ] 0
| 10> end
| 11> *xyz 0 1
| 12>  N        1.0671290000    -0.5529940000    -0.1389880000
| 13>  N        2.4244540000    -0.4522960000    -0.1456050000
| 14>  C        3.0238930000    -0.5342190000     0.9864590000
| 15>  C        2.2930770000    -0.7519970000     2.2917710000
| 16>  O        1.5765420000    -1.9647550000     2.3109000000
| 17>  C        4.4428450000    -0.4509230000     1.0041500000
| 18>  C        5.6390220000    -0.3717640000     1.1017440000
| 19>  H        0.5934960000    -0.1008240000     0.6399130000
| 20>  H        0.6985900000    -0.2419860000    -1.0242950000
| 21>  H        1.6288660000     0.1092220000     2.4849060000
| 22>  H        3.0076870000    -0.7879390000     3.1129160000
| 23>  H        1.1337050000    -2.0684590000     1.4603310000
| 24>  H        6.6994940000    -0.3069870000     1.1646990000
| 25> *
| 26>
| 27>                          ****END OF INPUT****
 Total Charge           Charge          ....    0
 Multiplicity           Mult            ....    1
 Number of Electrons    NEL             ....   52
 Basis Dimension        Dim             ....  128

MULLIKEN ATOMIC CHARGES
-----------------------
   0 N :   -0.068568
   1 N :   -0.099532
   2 C :   -0.245729
   3 C :    0.259501
   4 O :   -0.273628
   5 C :    0.453574
   6 C :   -0.441852
   7 H :    0.108565
   8 H :    0.128381
   9 H :    0.004161
  10 H :    0.014236
  11 H :    0.154197
  12 H :    0.006695
Sum of atomic charges:   -0.0000000

LOEWDIN ATOMIC CHARGES
----------------------
   0 N :    0.011460
   1 N :   -0.030241
   2 C :   -0.098224
   3 C :    0.050871
   4 O :   -0.111312
   5 C :   -0.017160
   6 C :   -0.058499
   7 H :    0.051265
   8 H :    0.068530
   9 H :    0.007166
  10 H :    0.035067
  11 H :    0.054673
  12 H :    0.036405

  Mayer bond orders larger than 0.1
B(  0-N ,  1-N ) :   1.1025 B(  0-N ,  7-H ) :   0.9255 B(  0-N ,  8-H ) :   0.9606
B(  1-N ,  2-C ) :   1.8081 B(  2-C ,  3-C ) :   1.0015 B(  2-C ,  5-C ) :   1.0417
B(  3-C ,  4-O ) :   1.0880 B(  3-C ,  9-H ) :   0.8990 B(  3-C , 10-H ) :   0.9161
B(  4-O , 11-H ) :   0.9659 B(  5-C ,  6-C ) :   2.2659 B(  5-C , 12-H ) :  -0.1011
B(  6-C , 12-H ) :   1.0913

FINAL SINGLE POINT ENERGY      -339.981538149464

DIPOLE MOMENT
-------------
                                X             Y             Z
Electronic contribution:      2.06956      -0.39003      -1.45307
Nuclear contribution   :     -2.77992       1.05940       1.30215
                        -----------------------------------------
Total Dipole Moment    :     -0.71036       0.66938      -0.15092
                        -----------------------------------------
Magnitude (a.u.)       :      0.98765
Magnitude (Debye)      :      2.51040

                             ****ORCA TERMINATED NORMALLY****
TOTAL RUN TIME: 0 days 0 hours 0 minutes 6 seconds 193 msec
