                         Program Version 3.0.3 - RELEASE   -
|  1> ! RI PBE def2-SVP def2-SVP/J NBO PAL2
|  2> % maxcore 2000
|  3> % output
|  4>     # printlevel mini
|  5>     print[ P_Basis ] 0
|  6>     print[ P_SCFInfo ] 1
|  7>     print[ P_SCFIterInfo ] 1
|  8>     print[ P_OrbEn ] 0
|  9>     print[ P_Cartesian ] 0
| 10> end
| 11> *xyz 0 1
| 12>  N        0.7526490000     0.2533640000     1.4163080000
| 13>  N        2.1052620000     0.3083610000     1.3199270000
| 14>  C        2.7789560000    -0.7515370000     1.1716830000
| 15>  C        4.2807990000    -0.6589980000     1.1580600000
| 16>  O        4.7037660000     0.6710840000     1.2798560000
| 17>  C        4.8539850000    -1.5015000000     2.2623140000
| 18>  C        5.5313190000    -2.6227430000     2.0681100000
| 19>  H        0.3390490000     1.1244330000     1.1241480000
| 20>  H        0.3216560000    -0.5470960000     0.9645660000
| 21>  H        2.3239600000    -1.7419060000     1.0696670000
| 22>  H        4.6335530000    -1.0702620000     0.1987390000
| 23>  H        3.8958210000     1.1988040000     1.3712280000
| 24>  H        4.6710830000    -1.1251940000     3.2661370000
| 25>  H        5.7329470000    -2.9939010000     1.0675610000
| 26>  H        5.9160050000    -3.2071980000     2.8956860000
| 27> *
| 28>
| 29>                          ****END OF INPUT****
 Total Charge           Charge          ....    0
 Multiplicity           Mult            ....    1
 Number of Electrons    NEL             ....   54
 Basis Dimension        Dim             ....  138

MULLIKEN ATOMIC CHARGES
-----------------------
   0 N :   -0.041791
   1 N :   -0.160167
   2 C :   -0.047538
   3 C :    0.191275
   4 O :   -0.251856
   5 C :   -0.046874
   6 C :   -0.029105
   7 H :    0.120447
   8 H :    0.093360
   9 H :   -0.009738
  10 H :   -0.007250
  11 H :    0.142586
  12 H :    0.002691
  13 H :    0.016748
  14 H :    0.027212
Sum of atomic charges:   -0.0000000

LOEWDIN ATOMIC CHARGES
----------------------
   0 N :    0.008910
   1 N :   -0.049100
   2 C :   -0.047221
   3 C :    0.036781
   4 O :   -0.106861
   5 C :   -0.033024
   6 C :   -0.061143
   7 H :    0.062422
   8 H :    0.046939
   9 H :    0.001088
  10 H :    0.020757
  11 H :    0.046179
  12 H :    0.027220
  13 H :    0.020923
  14 H :    0.026130

  Mayer bond orders larger than 0.1
B(  0-N ,  1-N ) :   1.1235 B(  0-N ,  2-C ) :   0.1272 B(  0-N ,  7-H ) :   0.9624
B(  0-N ,  8-H ) :   0.9466 B(  1-N ,  2-C ) :   1.8479 B(  1-N , 11-H ) :   0.1083
B(  2-C ,  3-C ) :   0.9797 B(  2-C ,  9-H ) :   0.9378 B(  3-C ,  4-O ) :   1.1403
B(  3-C ,  5-C ) :   0.9751 B(  3-C , 10-H ) :   0.8894 B(  4-O , 11-H ) :   0.9433
B(  5-C ,  6-C ) :   1.9803 B(  5-C , 12-H ) :   0.9509 B(  6-C , 13-H ) :   0.9462
B(  6-C , 14-H ) :   0.9418

FINAL SINGLE POINT ENERGY      -341.226788237024

DIPOLE MOMENT
-------------
                                X             Y             Z
Electronic contribution:     -0.92718       3.20979      -0.34634
Nuclear contribution   :     -0.34513      -3.59716      -0.09476
                        -----------------------------------------
Total Dipole Moment    :     -1.27231      -0.38737      -0.44111
                        -----------------------------------------
Magnitude (a.u.)       :      1.40122
Magnitude (Debye)      :      3.56161

                             ****ORCA TERMINATED NORMALLY****
TOTAL RUN TIME: 0 days 0 hours 0 minutes 6 seconds 663 msec
