                         Program Version 3.0.3 - RELEASE   -
|  1> ! RI PBE def2-SVP def2-SVP/J NBO PAL2
|  2> % maxcore 2000
|  3> % output
|  4>     # printlevel mini
|  5>     print[ P_Basis ] 0
|  6>     print[ P_SCFInfo ] 1
|  7>     print[ P_SCFIterInfo ] 1
|  8>     print[ P_OrbEn ] 0
|  9>     print[ P_Cartesian ] 0
| 10> end
| 11> *xyz 0 1
| 12>  N        0.9241920000     0.8824260000    -0.0500230000
| 13>  N        2.2738730000     0.8646310000    -0.0798700000
| 14>  C        2.8628070000     0.1300920000    -0.9271930000
| 15>  C        4.3614430000     0.1421720000    -1.0015970000
| 16>  O        4.9157420000    -1.1113890000    -0.6281870000
| 17>  C        4.8105750000     0.5443010000    -2.3333240000
| 18>  C        5.1577280000     0.8368820000    -3.4449530000
| 19>  H        0.5829250000     1.1659140000     0.8537600000
| 20>  H        0.4580760000     0.0567040000    -0.4132300000
| 21>  H        2.3252900000    -0.5334960000    -1.6158200000
| 22>  H        4.7128060000     0.8686610000    -0.2637240000
| 23>  H        4.9503760000    -1.6681820000    -1.4113270000
| 24>  H        5.4735770000     1.1104930000    -4.4241020000
| 25> *
| 26>
| 27>                          ****END OF INPUT****
 Total Charge           Charge          ....    0
 Multiplicity           Mult            ....    1
 Number of Electrons    NEL             ....   52
 Basis Dimension        Dim             ....  128

MULLIKEN ATOMIC CHARGES
-----------------------
   0 N :   -0.046838
   1 N :   -0.108243
   2 C :   -0.042013
   3 C :    0.248434
   4 O :   -0.261652
   5 C :    0.318248
   6 C :   -0.478619
   7 H :    0.121278
   8 H :    0.090840
   9 H :   -0.026714
  10 H :    0.026633
  11 H :    0.154865
  12 H :    0.003781
Sum of atomic charges:   -0.0000000

LOEWDIN ATOMIC CHARGES
----------------------
   0 N :    0.014502
   1 N :   -0.032304
   2 C :   -0.056468
   3 C :    0.029585
   4 O :   -0.096362
   5 C :   -0.037622
   6 C :   -0.071298
   7 H :    0.062795
   8 H :    0.043126
   9 H :   -0.008983
  10 H :    0.047423
  11 H :    0.068465
  12 H :    0.037140

  Mayer bond orders larger than 0.1
B(  0-N ,  1-N ) :   1.1287 B(  0-N ,  2-C ) :   0.1318 B(  0-N ,  7-H ) :   0.9615
B(  0-N ,  8-H ) :   0.9417 B(  1-N ,  2-C ) :   1.8785 B(  2-C ,  3-C ) :   0.9881
B(  2-C ,  9-H ) :   0.9216 B(  3-C ,  4-O ) :   1.0254 B(  3-C ,  5-C ) :   0.9792
B(  3-C , 10-H ) :   0.8679 B(  4-O , 11-H ) :   0.9788 B(  5-C ,  6-C ) :   2.3620
B(  5-C , 12-H ) :  -0.1104 B(  6-C , 12-H ) :   1.1004

FINAL SINGLE POINT ENERGY      -339.974861804639

DIPOLE MOMENT
-------------
                                X             Y             Z
Electronic contribution:      1.83753       0.21568       0.06238
Nuclear contribution   :     -2.64378      -0.65699      -0.39208
                        -----------------------------------------
Total Dipole Moment    :     -0.80625      -0.44131      -0.32970
                        -----------------------------------------
Magnitude (a.u.)       :      0.97647
Magnitude (Debye)      :      2.48199

                             ****ORCA TERMINATED NORMALLY****
TOTAL RUN TIME: 0 days 0 hours 0 minutes 6 seconds 441 msec
