                         Program Version 3.0.3 - RELEASE   -
|  1> ! RI PBE def2-SVP def2-SVP/J NBO PAL2
|  2> % maxcore 2000
|  3> % output
|  4>     # printlevel mini
|  5>     print[ P_Basis ] 0
|  6>     print[ P_SCFInfo ] 1
|  7>     print[ P_SCFIterInfo ] 1
|  8>     print[ P_OrbEn ] 0
|  9>     print[ P_Cartesian ] 0
| 10> end
| 11> *xyz 0 1
| 12>  N        2.3582580000    -0.6981440000     2.9492580000
| 13>  N        3.1287360000    -1.2069900000     1.9630480000
| 14>  C        2.8441400000    -0.9315520000     0.7585580000
| 15>  C        3.7383520000    -1.3866100000    -0.3359760000
| 16>  O        2.9649890000    -2.1301500000    -1.2635890000
| 17>  C        3.6059930000    -2.5780570000    -2.3574410000
| 18>  C        4.8893000000    -2.4350300000    -2.6757030000
| 19>  H        2.4126540000    -1.2626240000     3.7812900000
| 20>  H        1.4049400000    -0.4603660000     2.6910330000
| 21>  H        1.9579900000    -0.3461330000     0.4849450000
| 22>  H        4.5439990000    -1.9995670000     0.0806390000
| 23>  H        4.1863500000    -0.5288550000    -0.8580600000
| 24>  H        2.9147010000    -3.1104760000    -3.0024080000
| 25>  H        5.6073930000    -1.9177330000    -2.0546480000
| 26>  H        5.2429050000    -2.8617240000    -3.6038640000
| 27> *
| 28>
| 29>                          ****END OF INPUT****
 Total Charge           Charge          ....    0
 Multiplicity           Mult            ....    1
 Number of Electrons    NEL             ....   54
 Basis Dimension        Dim             ....  138

MULLIKEN ATOMIC CHARGES
-----------------------
   0 N :   -0.049575
   1 N :   -0.105920
   2 C :   -0.098964
   3 C :    0.225927
   4 O :   -0.267575
   5 C :    0.105785
   6 C :   -0.120048
   7 H :    0.121442
   8 H :    0.089687
   9 H :   -0.012154
  10 H :    0.024908
  11 H :    0.023105
  12 H :    0.011931
  13 H :    0.030468
  14 H :    0.020982
Sum of atomic charges:    0.0000000

LOEWDIN ATOMIC CHARGES
----------------------
   0 N :    0.012572
   1 N :   -0.032102
   2 C :   -0.064046
   3 C :    0.060610
   4 O :   -0.069607
   5 C :    0.030209
   6 C :   -0.159981
   7 H :    0.062572
   8 H :    0.042955
   9 H :   -0.005209
  10 H :    0.023692
  11 H :    0.020952
  12 H :    0.023160
  13 H :    0.022960
  14 H :    0.031262

  Mayer bond orders larger than 0.1
B(  0-N ,  1-N ) :   1.1296 B(  0-N ,  2-C ) :   0.1373 B(  0-N ,  7-H ) :   0.9624
B(  0-N ,  8-H ) :   0.9406 B(  1-N ,  2-C ) :   1.8902 B(  2-C ,  3-C ) :   1.0412
B(  2-C ,  9-H ) :   0.9310 B(  3-C ,  4-O ) :   0.9432 B(  3-C , 10-H ) :   0.9271
B(  3-C , 11-H ) :   0.9117 B(  4-O ,  5-C ) :   1.1647 B(  4-O ,  6-C ) :   0.1054
B(  5-C ,  6-C ) :   1.8615 B(  5-C , 12-H ) :   0.9639 B(  6-C , 13-H ) :   0.9524
B(  6-C , 14-H ) :   0.9345

FINAL SINGLE POINT ENERGY      -341.221895263570

DIPOLE MOMENT
-------------
                                X             Y             Z
Electronic contribution:     -2.06625      -0.18718       2.09492
Nuclear contribution   :      1.48164       0.38388      -1.62068
                        -----------------------------------------
Total Dipole Moment    :     -0.58461       0.19670       0.47424
                        -----------------------------------------
Magnitude (a.u.)       :      0.77805
Magnitude (Debye)      :      1.97765

                             ****ORCA TERMINATED NORMALLY****
TOTAL RUN TIME: 0 days 0 hours 0 minutes 7 seconds 46 msec
