                         Program Version 3.0.3 - RELEASE   -
|  1> ! RI PBE def2-SVP def2-SVP/J NBO PAL2
|  2> % maxcore 2000
|  3> % output
|  4>     # printlevel mini
|  5>     print[ P_Basis ] 0
|  6>     print[ P_SCFInfo ] 1
|  7>     print[ P_SCFIterInfo ] 1
|  8>     print[ P_OrbEn ] 0
|  9>     print[ P_Cartesian ] 0
| 10> end
| 11> *xyz 0 1
| 12>  N        5.2561980000    -1.2138120000    -2.1182180000
| 13>  N        5.2104580000     0.0599700000    -1.5816480000
| 14>  C        4.1157360000     0.6798900000    -1.6385380000
| 15>  O        3.9126080000     1.8848310000    -1.0770610000
| 16>  C        5.0088870000     2.4469740000    -0.4080500000
| 17>  C        5.9009700000     3.3699710000    -1.1619290000
| 18>  C        4.9151480000     3.9043080000    -0.1542950000
| 19>  H        6.2026690000    -1.3947460000    -2.4189440000
| 20>  H        4.6248640000    -1.3410980000    -2.9055210000
| 21>  H        3.2071510000     0.3159960000    -2.1240670000
| 22>  H        5.4455570000     1.7909050000     0.3359800000
| 23>  H        5.6670580000     3.5265160000    -2.2072880000
| 24>  H        6.9566530000     3.3714460000    -0.9219730000
| 25>  H        4.0395960000     4.4102290000    -0.5412940000
| 26>  H        5.2818450000     4.2827110000     0.7913480000
| 27> *
| 28>
| 29>                          ****END OF INPUT****
 Total Charge           Charge          ....    0
 Multiplicity           Mult            ....    1
 Number of Electrons    NEL             ....   54
 Basis Dimension        Dim             ....  138

MULLIKEN ATOMIC CHARGES
-----------------------
   0 N :   -0.061742
   1 N :   -0.190308
   2 C :    0.132463
   3 O :   -0.236169
   4 C :    0.074360
   5 C :   -0.055140
   6 C :   -0.035890
   7 H :    0.109996
   8 H :    0.079402
   9 H :   -0.010581
  10 H :    0.028417
  11 H :    0.039093
  12 H :    0.044127
  13 H :    0.045642
  14 H :    0.036329
Sum of atomic charges:    0.0000000

LOEWDIN ATOMIC CHARGES
----------------------
   0 N :   -0.019247
   1 N :   -0.103579
   2 C :    0.002419
   3 O :   -0.055637
   4 C :    0.049439
   5 C :   -0.054625
   6 C :   -0.051389
   7 H :    0.056412
   8 H :    0.039463
   9 H :   -0.008387
  10 H :    0.018558
  11 H :    0.032442
  12 H :    0.030676
  13 H :    0.033778
  14 H :    0.029676

  Mayer bond orders larger than 0.1
B(  0-N ,  1-N ) :   1.0549 B(  0-N ,  2-C ) :   0.1080 B(  0-N ,  7-H ) :   0.9669
B(  0-N ,  8-H ) :   0.9497 B(  1-N ,  2-C ) :   1.7738 B(  2-C ,  3-O ) :   1.1314
B(  2-C ,  9-H ) :   0.9467 B(  3-O ,  4-C ) :   1.0003 B(  4-C ,  5-C ) :   1.0230
B(  4-C ,  6-C ) :   0.9930 B(  4-C , 10-H ) :   0.9378 B(  5-C ,  6-C ) :   1.0312
B(  5-C , 11-H ) :   0.9408 B(  5-C , 12-H ) :   0.9455 B(  6-C , 13-H ) :   0.9443
B(  6-C , 14-H ) :   0.9436

FINAL SINGLE POINT ENERGY      -341.219064924519

DIPOLE MOMENT
-------------
                                X             Y             Z
Electronic contribution:     -1.95420      -2.51851      -0.15426
Nuclear contribution   :      2.08618       2.47418      -0.42003
                        -----------------------------------------
Total Dipole Moment    :      0.13198      -0.04434      -0.57429
                        -----------------------------------------
Magnitude (a.u.)       :      0.59092
Magnitude (Debye)      :      1.50200

                             ****ORCA TERMINATED NORMALLY****
TOTAL RUN TIME: 0 days 0 hours 0 minutes 6 seconds 754 msec
