                         Program Version 3.0.3 - RELEASE   -
|  1> ! RI PBE def2-SVP def2-SVP/J NBO PAL2
|  2> % maxcore 2000
|  3> % output
|  4>     # printlevel mini
|  5>     print[ P_Basis ] 0
|  6>     print[ P_SCFInfo ] 1
|  7>     print[ P_SCFIterInfo ] 1
|  8>     print[ P_OrbEn ] 0
|  9>     print[ P_Cartesian ] 0
| 10> end
| 11> *xyz 0 1
| 12>  N        1.0232150000     0.7747270000    -0.4142920000
| 13>  N        1.6964530000    -0.4270500000    -0.1466870000
| 14>  C        1.6246290000    -0.9279530000     1.1090450000
| 15>  O        0.8900740000    -0.4934590000     1.9717450000
| 16>  C        2.7372500000    -0.7658470000    -1.0579220000
| 17>  C        3.0166220000    -2.2080400000    -1.3354770000
| 18>  C        2.3734000000    -1.3547620000    -2.3844420000
| 19>  H        0.7438790000     1.1354630000     0.4964640000
| 20>  H        0.1617490000     0.5536420000    -0.9060170000
| 21>  H        2.3149460000    -1.7718430000     1.2650540000
| 22>  H        3.5814090000    -0.0816960000    -1.0476150000
| 23>  H        2.3931310000    -2.9469180000    -0.8493540000
| 24>  H        4.0509410000    -2.5011880000    -1.4588240000
| 25>  H        1.3220110000    -1.5227740000    -2.5811900000
| 26>  H        2.9562990000    -1.0511120000    -3.2439770000
| 27> *
| 28>
| 29>                          ****END OF INPUT****
 Total Charge           Charge          ....    0
 Multiplicity           Mult            ....    1
 Number of Electrons    NEL             ....   54
 Basis Dimension        Dim             ....  138

MULLIKEN ATOMIC CHARGES
-----------------------
   0 N :   -0.048281
   1 N :   -0.205688
   2 C :    0.158440
   3 O :   -0.247201
   4 C :    0.004371
   5 C :   -0.055773
   6 C :   -0.013694
   7 H :    0.094321
   8 H :    0.110613
   9 H :   -0.011547
  10 H :    0.040308
  11 H :    0.051859
  12 H :    0.046688
  13 H :    0.033846
  14 H :    0.041739
Sum of atomic charges:   -0.0000000

LOEWDIN ATOMIC CHARGES
----------------------
   0 N :   -0.025422
   1 N :    0.014561
   2 C :    0.032805
   3 O :   -0.194094
   4 C :    0.007786
   5 C :   -0.043541
   6 C :   -0.042753
   7 H :    0.049296
   8 H :    0.057111
   9 H :   -0.008461
  10 H :    0.024499
  11 H :    0.032390
  12 H :    0.033788
  13 H :    0.029899
  14 H :    0.032136

  Mayer bond orders larger than 0.1
B(  0-N ,  1-N ) :   1.0226 B(  0-N ,  7-H ) :   0.9464 B(  0-N ,  8-H ) :   0.9625
B(  1-N ,  2-C ) :   1.1707 B(  1-N ,  4-C ) :   0.9909 B(  2-C ,  3-O ) :   1.9903
B(  2-C ,  9-H ) :   0.9253 B(  4-C ,  5-C ) :   0.9866 B(  4-C ,  6-C ) :   1.0015
B(  4-C , 10-H ) :   0.9363 B(  5-C ,  6-C ) :   1.0356 B(  5-C , 11-H ) :   0.9474
B(  5-C , 12-H ) :   0.9471 B(  6-C , 13-H ) :   0.9438 B(  6-C , 14-H ) :   0.9470

FINAL SINGLE POINT ENERGY      -341.249901354461

DIPOLE MOMENT
-------------
                                X             Y             Z
Electronic contribution:     -2.06003       1.73518       4.56595
Nuclear contribution   :      2.39301      -2.08820      -5.62059
                        -----------------------------------------
Total Dipole Moment    :      0.33298      -0.35302      -1.05464
                        -----------------------------------------
Magnitude (a.u.)       :      1.16094
Magnitude (Debye)      :      2.95087

                             ****ORCA TERMINATED NORMALLY****
TOTAL RUN TIME: 0 days 0 hours 0 minutes 6 seconds 356 msec
