                         Program Version 3.0.3 - RELEASE   -
|  1> ! RI PBE def2-SVP def2-SVP/J NBO PAL2
|  2> % maxcore 2000
|  3> % output
|  4>     # printlevel mini
|  5>     print[ P_Basis ] 0
|  6>     print[ P_SCFInfo ] 1
|  7>     print[ P_SCFIterInfo ] 1
|  8>     print[ P_OrbEn ] 0
|  9>     print[ P_Cartesian ] 0
| 10> end
| 11> *xyz 0 1
| 12>  N        1.1606330000     0.1510580000     2.2328320000
| 13>  N        2.5012540000     0.4789650000     2.0796090000
| 14>  C        3.1391450000     0.4217530000     0.8825260000
| 15>  O        2.5683260000     0.0715300000    -0.1342140000
| 16>  C        4.5715440000     0.8164600000     0.9203830000
| 17>  C        5.5000300000     0.1042160000    -0.0273180000
| 18>  C        5.1192440000     1.5128470000    -0.2971670000
| 19>  H        1.0277620000    -0.8040410000     1.9146080000
| 20>  H        0.6165520000     0.7325320000     1.6026690000
| 21>  H        2.9784680000     0.7757680000     2.9120600000
| 22>  H        4.9729140000     1.1095230000     1.8841970000
| 23>  H        5.0441040000    -0.6588400000    -0.6451120000
| 24>  H        6.5002950000    -0.1084900000     0.3276210000
| 25>  H        4.4097550000     1.6901320000    -1.0952700000
| 26>  H        5.8513650000     2.2929970000    -0.1323130000
| 27> *
| 28>
| 29>                          ****END OF INPUT****
 Total Charge           Charge          ....    0
 Multiplicity           Mult            ....    1
 Number of Electrons    NEL             ....   54
 Basis Dimension        Dim             ....  138

MULLIKEN ATOMIC CHARGES
-----------------------
   0 N :   -0.072389
   1 N :   -0.125037
   2 C :    0.098516
   3 O :   -0.220705
   4 C :   -0.162950
   5 C :   -0.009521
   6 C :   -0.015249
   7 H :    0.107110
   8 H :    0.107149
   9 H :    0.118719
  10 H :   -0.006201
  11 H :    0.052636
  12 H :    0.035808
  13 H :    0.052544
  14 H :    0.039569
Sum of atomic charges:   -0.0000000

LOEWDIN ATOMIC CHARGES
----------------------
   0 N :   -0.034997
   1 N :    0.028938
   2 C :    0.018526
   3 O :   -0.211442
   4 C :   -0.081413
   5 C :   -0.022123
   6 C :   -0.023945
   7 H :    0.055400
   8 H :    0.055531
   9 H :    0.067739
  10 H :    0.021860
  11 H :    0.034084
  12 H :    0.028566
  13 H :    0.034002
  14 H :    0.029273

  Mayer bond orders larger than 0.1
B(  0-N ,  1-N ) :   1.0511 B(  0-N ,  7-H ) :   0.9693 B(  0-N ,  8-H ) :   0.9701
B(  1-N ,  2-C ) :   1.1916 B(  1-N ,  9-H ) :   0.9362 B(  2-C ,  3-O ) :   2.0960
B(  2-C ,  4-C ) :   0.9595 B(  4-C ,  5-C ) :   0.9642 B(  4-C ,  6-C ) :   0.9629
B(  4-C , 10-H ) :   0.9313 B(  5-C ,  6-C ) :   1.0605 B(  5-C , 11-H ) :   0.9429
B(  5-C , 12-H ) :   0.9475 B(  6-C , 13-H ) :   0.9416 B(  6-C , 14-H ) :   0.9471

FINAL SINGLE POINT ENERGY      -341.267485868458

DIPOLE MOMENT
-------------
                                X             Y             Z
Electronic contribution:     -3.18727      -0.75590       0.57773
Nuclear contribution   :      3.62720       1.01223       0.14068
                        -----------------------------------------
Total Dipole Moment    :      0.43993       0.25632       0.71841
                        -----------------------------------------
Magnitude (a.u.)       :      0.88054
Magnitude (Debye)      :      2.23815

                             ****ORCA TERMINATED NORMALLY****
TOTAL RUN TIME: 0 days 0 hours 0 minutes 7 seconds 148 msec
