                         Program Version 3.0.3 - RELEASE   -
|  1> ! RI PBE def2-SVP def2-SVP/J NBO PAL2
|  2> % maxcore 2000
|  3> % output
|  4>     # printlevel mini
|  5>     print[ P_Basis ] 0
|  6>     print[ P_SCFInfo ] 1
|  7>     print[ P_SCFIterInfo ] 1
|  8>     print[ P_OrbEn ] 0
|  9>     print[ P_Cartesian ] 0
| 10> end
| 11> *xyz 0 1
| 12>  N        1.3278050000    -0.4850230000     1.3684600000
| 13>  N        2.6671260000    -0.7105320000     1.6307850000
| 14>  C        3.5036600000    -0.3526740000     0.7585570000
| 15>  O        4.8297800000    -0.4496640000     0.9249390000
| 16>  C        5.2631020000    -0.9760890000     2.1645330000
| 17>  C        6.7484780000    -1.0144070000     2.2155850000
| 18>  C        7.5736690000    -0.6191560000     1.2588090000
| 19>  H        0.7881910000    -1.1706260000     1.8759600000
| 20>  H        1.0976590000    -0.5443380000     0.3797020000
| 21>  H        3.2570750000     0.0777230000    -0.2148110000
| 22>  H        4.8443710000    -1.9810410000     2.3041390000
| 23>  H        4.8609160000    -0.3661470000     2.9832860000
| 24>  H        7.1466620000    -1.4118440000     3.1463520000
| 25>  H        7.2028580000    -0.2190660000     0.3230890000
| 26>  H        8.6472380000    -0.6850350000     1.3874350000
| 27> *
| 28>
| 29>                          ****END OF INPUT****
 Total Charge           Charge          ....    0
 Multiplicity           Mult            ....    1
 Number of Electrons    NEL             ....   54
 Basis Dimension        Dim             ....  138

MULLIKEN ATOMIC CHARGES
-----------------------
   0 N :   -0.060096
   1 N :   -0.200557
   2 C :    0.134075
   3 O :   -0.261865
   4 C :    0.241511
   5 C :   -0.124647
   6 C :   -0.015530
   7 H :    0.111041
   8 H :    0.080422
   9 H :   -0.009721
  10 H :    0.019145
  11 H :    0.025614
  12 H :    0.008477
  13 H :    0.025273
  14 H :    0.026859
Sum of atomic charges:    0.0000000

LOEWDIN ATOMIC CHARGES
----------------------
   0 N :   -0.018884
   1 N :   -0.109239
   2 C :    0.003427
   3 O :   -0.060994
   4 C :    0.070545
   5 C :   -0.048306
   6 C :   -0.061555
   7 H :    0.056922
   8 H :    0.040281
   9 H :   -0.006662
  10 H :    0.025540
  11 H :    0.028130
  12 H :    0.030657
  13 H :    0.024146
  14 H :    0.025992

  Mayer bond orders larger than 0.1
B(  0-N ,  1-N ) :   1.0571 B(  0-N ,  2-C ) :   0.1073 B(  0-N ,  7-H ) :   0.9669
B(  0-N ,  8-H ) :   0.9504 B(  1-N ,  2-C ) :   1.7646 B(  2-C ,  3-O ) :   1.1477
B(  2-C ,  9-H ) :   0.9490 B(  3-O ,  4-C ) :   0.9759 B(  4-C ,  5-C ) :   1.0396
B(  4-C , 10-H ) :   0.9210 B(  4-C , 11-H ) :   0.9217 B(  5-C ,  6-C ) :   2.0326
B(  5-C , 12-H ) :   0.9418 B(  6-C , 13-H ) :   0.9386 B(  6-C , 14-H ) :   0.9431

FINAL SINGLE POINT ENERGY      -341.223504015959

DIPOLE MOMENT
-------------
                                X             Y             Z
Electronic contribution:     -2.25414       0.55792      -0.72247
Nuclear contribution   :      1.84717      -0.96916       0.48490
                        -----------------------------------------
Total Dipole Moment    :     -0.40697      -0.41124      -0.23757
                        -----------------------------------------
Magnitude (a.u.)       :      0.62545
Magnitude (Debye)      :      1.58976

                             ****ORCA TERMINATED NORMALLY****
TOTAL RUN TIME: 0 days 0 hours 0 minutes 6 seconds 682 msec
