                         Program Version 3.0.3 - RELEASE   -
|  1> ! RI PBE def2-SVP def2-SVP/J NBO PAL2
|  2> % maxcore 2000
|  3> % output
|  4>     # printlevel mini
|  5>     print[ P_Basis ] 0
|  6>     print[ P_SCFInfo ] 1
|  7>     print[ P_SCFIterInfo ] 1
|  8>     print[ P_OrbEn ] 0
|  9>     print[ P_Cartesian ] 0
| 10> end
| 11> *xyz 0 1
| 12>  N        0.9357180000    -1.2817940000     1.8125160000
| 13>  N        2.3006480000    -1.4788060000     1.7247980000
| 14>  C        2.8832250000    -1.1198600000     0.6668230000
| 15>  O        4.2129760000    -1.1954910000     0.5003840000
| 16>  C        4.9280400000    -1.7033430000     1.6198860000
| 17>  C        6.3443080000    -1.7241170000     1.3088110000
| 18>  C        7.5223370000    -1.7566370000     1.0883510000
| 19>  H        0.5581520000    -1.9641000000     2.4532080000
| 20>  H        0.4597680000    -1.3611870000     0.9176790000
| 21>  H        2.3979990000    -0.7068610000    -0.2199250000
| 22>  H        4.5698380000    -2.7099820000     1.8618720000
| 23>  H        4.7316950000    -1.0783270000     2.4977190000
| 24>  H        8.5671870000    -1.7820950000     0.8869870000
| 25> *
| 26>
| 27>                          ****END OF INPUT****
 Total Charge           Charge          ....    0
 Multiplicity           Mult            ....    1
 Number of Electrons    NEL             ....   52
 Basis Dimension        Dim             ....  128

MULLIKEN ATOMIC CHARGES
-----------------------
   0 N :   -0.057977
   1 N :   -0.199628
   2 C :    0.127568
   3 O :   -0.258700
   4 C :    0.225277
   5 C :    0.333240
   6 C :   -0.450975
   7 H :    0.112345
   8 H :    0.083038
   9 H :    0.001576
  10 H :    0.035621
  11 H :    0.042209
  12 H :    0.006406
Sum of atomic charges:   -0.0000000

LOEWDIN ATOMIC CHARGES
----------------------
   0 N :   -0.017309
   1 N :   -0.107615
   2 C :    0.003566
   3 O :   -0.063420
   4 C :    0.066199
   5 C :   -0.029884
   6 C :   -0.061511
   7 H :    0.057682
   8 H :    0.041883
   9 H :   -0.002773
  10 H :    0.036989
  11 H :    0.039493
  12 H :    0.036699

  Mayer bond orders larger than 0.1
B(  0-N ,  1-N ) :   1.0589 B(  0-N ,  2-C ) :   0.1081 B(  0-N ,  7-H ) :   0.9672
B(  0-N ,  8-H ) :   0.9498 B(  1-N ,  2-C ) :   1.7581 B(  2-C ,  3-O ) :   1.1486
B(  2-C ,  9-H ) :   0.9490 B(  3-O ,  4-C ) :   0.9695 B(  4-C ,  5-C ) :   0.9850
B(  4-C , 10-H ) :   0.9162 B(  4-C , 11-H ) :   0.9181 B(  5-C ,  6-C ) :   2.3930
B(  5-C , 12-H ) :  -0.1003 B(  6-C , 12-H ) :   1.0910

FINAL SINGLE POINT ENERGY      -339.975651914423

DIPOLE MOMENT
-------------
                                X             Y             Z
Electronic contribution:      2.15512       0.38169      -0.99104
Nuclear contribution   :     -2.69412      -0.78813       0.85718
                        -----------------------------------------
Total Dipole Moment    :     -0.53900      -0.40644      -0.13386
                        -----------------------------------------
Magnitude (a.u.)       :      0.68821
Magnitude (Debye)      :      1.74929

                             ****ORCA TERMINATED NORMALLY****
TOTAL RUN TIME: 0 days 0 hours 0 minutes 5 seconds 971 msec
