                         Program Version 3.0.3 - RELEASE   -
|  1> ! RI PBE def2-SVP def2-SVP/J NBO PAL2
|  2> % maxcore 2000
|  3> % output
|  4>     # printlevel mini
|  5>     print[ P_Basis ] 0
|  6>     print[ P_SCFInfo ] 1
|  7>     print[ P_SCFIterInfo ] 1
|  8>     print[ P_OrbEn ] 0
|  9>     print[ P_Cartesian ] 0
| 10> end
| 11> *xyz 0 1
| 12>  N        1.2495410000    -2.0387270000     0.8157190000
| 13>  N        2.5641940000    -1.6510300000     0.5827330000
| 14>  C        3.0386110000    -1.4140890000    -0.6654520000
| 15>  O        2.3248800000    -1.4446230000    -1.6471680000
| 16>  C        4.5209790000    -1.1008280000    -0.7412290000
| 17>  C        5.2242210000    -2.0508110000    -1.6564370000
| 18>  C        6.3092610000    -2.7388840000    -1.3339500000
| 19>  H        1.0048910000    -2.7439660000     0.1264650000
| 20>  H        0.6445800000    -1.2450960000     0.6301780000
| 21>  H        3.1923690000    -1.7576540000     1.3597620000
| 22>  H        4.9892190000    -1.0969640000     0.2466290000
| 23>  H        4.5883580000    -0.0838950000    -1.1450080000
| 24>  H        4.7771410000    -2.1600190000    -2.6405660000
| 25>  H        6.7719610000    -2.6510450000    -0.3554730000
| 26>  H        6.7787830000    -3.4135710000    -2.0399930000
| 27> *
| 28>
| 29>                          ****END OF INPUT****
 Total Charge           Charge          ....    0
 Multiplicity           Mult            ....    1
 Number of Electrons    NEL             ....   54
 Basis Dimension        Dim             ....  138

MULLIKEN ATOMIC CHARGES
-----------------------
   0 N :   -0.076303
   1 N :   -0.112862
   2 C :   -0.008144
   3 O :   -0.214929
   4 C :    0.082423
   5 C :   -0.082516
   6 C :   -0.040599
   7 H :    0.105131
   8 H :    0.111098
   9 H :    0.124261
  10 H :   -0.008211
  11 H :    0.050119
  12 H :    0.024184
  13 H :    0.014643
  14 H :    0.031706
Sum of atomic charges:   -0.0000000

LOEWDIN ATOMIC CHARGES
----------------------
   0 N :   -0.034916
   1 N :    0.030328
   2 C :    0.014499
   3 O :   -0.199358
   4 C :   -0.065283
   5 C :   -0.018120
   6 C :   -0.068051
   7 H :    0.053906
   8 H :    0.057622
   9 H :    0.069331
  10 H :    0.024381
  11 H :    0.056018
  12 H :    0.032462
  13 H :    0.019878
  14 H :    0.027303

  Mayer bond orders larger than 0.1
B(  0-N ,  1-N ) :   1.0514 B(  0-N ,  7-H ) :   0.9683 B(  0-N ,  8-H ) :   0.9707
B(  1-N ,  2-C ) :   1.2063 B(  1-N ,  9-H ) :   0.9310 B(  2-C ,  3-O ) :   2.0921
B(  2-C ,  4-C ) :   0.9424 B(  4-C ,  5-C ) :   1.0559 B(  4-C , 10-H ) :   0.9205
B(  4-C , 11-H ) :   0.8886 B(  5-C ,  6-C ) :   2.0093 B(  5-C , 12-H ) :   0.9562
B(  6-C , 13-H ) :   0.9450 B(  6-C , 14-H ) :   0.9489

FINAL SINGLE POINT ENERGY      -341.264067890205

DIPOLE MOMENT
-------------
                                X             Y             Z
Electronic contribution:     -3.89012       0.98025      -0.42681
Nuclear contribution   :      4.22877      -0.88251       1.17240
                        -----------------------------------------
Total Dipole Moment    :      0.33865       0.09775       0.74559
                        -----------------------------------------
Magnitude (a.u.)       :      0.82470
Magnitude (Debye)      :      2.09623

                             ****ORCA TERMINATED NORMALLY****
TOTAL RUN TIME: 0 days 0 hours 0 minutes 6 seconds 399 msec
