                         Program Version 3.0.3 - RELEASE   -
|  1> ! RI PBE def2-SVP def2-SVP/J NBO PAL2
|  2> % maxcore 2000
|  3> % output
|  4>     # printlevel mini
|  5>     print[ P_Basis ] 0
|  6>     print[ P_SCFInfo ] 1
|  7>     print[ P_SCFIterInfo ] 1
|  8>     print[ P_OrbEn ] 0
|  9>     print[ P_Cartesian ] 0
| 10> end
| 11> *xyz 0 1
| 12>  N        1.4957950000    -1.2122080000     0.4935720000
| 13>  N        2.7533940000    -0.8044500000     0.0674680000
| 14>  C        2.9477110000    -0.1439820000    -1.0903850000
| 15>  O        2.0511360000     0.1486360000    -1.8535000000
| 16>  C        4.3940640000     0.2313140000    -1.4078950000
| 17>  C        5.3987020000    -0.1592560000    -0.4377820000
| 18>  C        6.2160600000    -0.4909700000     0.3769650000
| 19>  H        1.0933990000    -1.8065780000    -0.2247250000
| 20>  H        0.8969930000    -0.3938810000     0.5477730000
| 21>  H        3.5304400000    -1.0245400000     0.6683050000
| 22>  H        4.4047650000     1.3156570000    -1.5519630000
| 23>  H        4.6170690000    -0.2070800000    -2.3850030000
| 24>  H        6.9515720000    -0.7789730000     1.0908590000
| 25> *
| 26>
| 27>                          ****END OF INPUT****
 Total Charge           Charge          ....    0
 Multiplicity           Mult            ....    1
 Number of Electrons    NEL             ....   52
 Basis Dimension        Dim             ....  128

MULLIKEN ATOMIC CHARGES
-----------------------
   0 N :   -0.074040
   1 N :   -0.094434
   2 C :   -0.035592
   3 O :   -0.213932
   4 C :    0.143133
   5 C :    0.263314
   6 C :   -0.481579
   7 H :    0.108768
   8 H :    0.109322
   9 H :    0.136910
  10 H :    0.067824
  11 H :    0.063322
  12 H :    0.006982
Sum of atomic charges:   -0.0000000

LOEWDIN ATOMIC CHARGES
----------------------
   0 N :   -0.031157
   1 N :    0.040267
   2 C :    0.011448
   3 O :   -0.197079
   4 C :   -0.070114
   5 C :   -0.035424
   6 C :   -0.082297
   7 H :    0.056483
   8 H :    0.056768
   9 H :    0.073128
  10 H :    0.070382
  11 H :    0.069713
  12 H :    0.037883

  Mayer bond orders larger than 0.1
B(  0-N ,  1-N ) :   1.0468 B(  0-N ,  7-H ) :   0.9701 B(  0-N ,  8-H ) :   0.9699
B(  1-N ,  2-C ) :   1.2734 B(  1-N ,  9-H ) :   0.9041 B(  2-C ,  3-O ) :   2.0827
B(  2-C ,  4-C ) :   0.8979 B(  4-C ,  5-C ) :   1.0188 B(  4-C , 10-H ) :   0.8798
B(  4-C , 11-H ) :   0.8781 B(  5-C ,  6-C ) :   2.3485 B(  5-C , 12-H ) :  -0.1114
B(  6-C , 12-H ) :   1.1023

FINAL SINGLE POINT ENERGY      -340.022560772154

DIPOLE MOMENT
-------------
                                X             Y             Z
Electronic contribution:     -0.06323       0.47879      -0.89561
Nuclear contribution   :      0.52393      -0.67623       1.37140
                        -----------------------------------------
Total Dipole Moment    :      0.46070      -0.19744       0.47580
                        -----------------------------------------
Magnitude (a.u.)       :      0.69109
Magnitude (Debye)      :      1.75662

                             ****ORCA TERMINATED NORMALLY****
TOTAL RUN TIME: 0 days 0 hours 0 minutes 6 seconds 172 msec
