                         Program Version 3.0.3 - RELEASE   -
|  1> ! RI PBE def2-SVP def2-SVP/J NBO PAL2
|  2> % maxcore 2000
|  3> % output
|  4>     # printlevel mini
|  5>     print[ P_Basis ] 0
|  6>     print[ P_SCFInfo ] 1
|  7>     print[ P_SCFIterInfo ] 1
|  8>     print[ P_OrbEn ] 0
|  9>     print[ P_Cartesian ] 0
| 10> end
| 11> *xyz 0 1
| 12>  O       -1.1349840000     0.7308980000     0.7552240000
| 13>  C       -1.0841330000    -0.3648600000    -0.1378840000
| 14>  C       -0.1138940000    -1.4047490000     0.2082550000
| 15>  N        1.1372300000    -1.2147130000     0.3938220000
| 16>  N        1.7128790000     0.0136320000     0.0812970000
| 17>  C        0.9938610000     0.9590260000    -0.3931520000
| 18>  C       -0.4677030000     0.9505050000    -0.4725480000
| 19>  H       -2.0410230000    -0.6496150000    -0.5653820000
| 20>  H       -0.4587250000    -2.4315400000     0.3155830000
| 21>  H        1.5362040000     1.8253230000    -0.7674780000
| 22>  H       -0.9689110000     1.6381040000    -1.1474380000
| 23> *
| 24>
| 25>                          ****END OF INPUT****
 Total Charge           Charge          ....    0
 Multiplicity           Mult            ....    1
 Number of Electrons    NEL             ....   50
 Basis Dimension        Dim             ....  118

MULLIKEN ATOMIC CHARGES
-----------------------
   0 O :   -0.241894
   1 C :    0.096831
   2 C :    0.037319
   3 N :   -0.062799
   4 N :   -0.060510
   5 C :    0.035843
   6 C :    0.087969
   7 H :    0.032626
   8 H :    0.019586
   9 H :    0.020223
  10 H :    0.034806
Sum of atomic charges:   -0.0000000

LOEWDIN ATOMIC CHARGES
----------------------
   0 O :   -0.105786
   1 C :    0.037302
   2 C :   -0.003814
   3 N :   -0.037559
   4 N :   -0.037321
   5 C :   -0.004297
   6 C :    0.035947
   7 H :    0.026687
   8 H :    0.030813
   9 H :    0.031100
  10 H :    0.026930

  Mayer bond orders larger than 0.1
B(  0-O ,  1-C ) :   0.9532 B(  0-O ,  6-C ) :   0.9552 B(  1-C ,  2-C ) :   1.0101
B(  1-C ,  6-C ) :   0.9457 B(  1-C ,  7-H ) :   0.9417 B(  2-C ,  3-N ) :   1.8728
B(  2-C ,  8-H ) :   0.9726 B(  3-N ,  4-N ) :   1.0657 B(  4-N ,  5-C ) :   1.8745
B(  5-C ,  6-C ) :   1.0068 B(  5-C ,  9-H ) :   0.9711 B(  6-C , 10-H ) :   0.9443

FINAL SINGLE POINT ENERGY      -338.800765992111

DIPOLE MOMENT
-------------
                                X             Y             Z
Electronic contribution:      1.08902      -0.16107       1.38409
Nuclear contribution   :     -2.27593       0.48332      -2.29248
                        -----------------------------------------
Total Dipole Moment    :     -1.18691       0.32225      -0.90840
                        -----------------------------------------
Magnitude (a.u.)       :      1.52898
Magnitude (Debye)      :      3.88637

                             ****ORCA TERMINATED NORMALLY****
TOTAL RUN TIME: 0 days 0 hours 0 minutes 5 seconds 421 msec
