                         Program Version 3.0.3 - RELEASE   -
|  1> ! RI PBE def2-SVP def2-SVP/J NBO PAL2
|  2> % maxcore 2000
|  3> % output
|  4>     # printlevel mini
|  5>     print[ P_Basis ] 0
|  6>     print[ P_SCFInfo ] 1
|  7>     print[ P_SCFIterInfo ] 1
|  8>     print[ P_OrbEn ] 0
|  9>     print[ P_Cartesian ] 0
| 10> end
| 11> *xyz 0 1
| 12>  O        0.7405520000    -1.0189080000    -0.7731690000
| 13>  C       -0.4029700000    -1.4461490000    -0.1500670000
| 14>  C       -1.3772270000    -0.6034800000     0.1971880000
| 15>  C       -1.2970370000     0.8084800000    -0.1209030000
| 16>  N       -0.2441330000     1.5393400000    -0.1721310000
| 17>  N        0.9306490000     1.0565530000     0.3169930000
| 18>  C        1.3751430000    -0.0821710000     0.0331030000
| 19>  H       -0.4476070000    -2.5201020000     0.0037750000
| 20>  H       -2.2869580000    -1.0072740000     0.6259610000
| 21>  H       -2.2207070000     1.3214050000    -0.3832340000
| 22>  H        2.3361860000    -0.4090950000     0.4178940000
| 23> *
| 24>
| 25>                          ****END OF INPUT****
 Total Charge           Charge          ....    0
 Multiplicity           Mult            ....    1
 Number of Electrons    NEL             ....   50
 Basis Dimension        Dim             ....  118

MULLIKEN ATOMIC CHARGES
-----------------------
   0 O :   -0.238697
   1 C :    0.120427
   2 C :   -0.016798
   3 C :   -0.004447
   4 N :   -0.059077
   5 N :   -0.032465
   6 C :    0.103810
   7 H :    0.032352
   8 H :    0.018944
   9 H :    0.031660
  10 H :    0.044292
Sum of atomic charges:   -0.0000000

LOEWDIN ATOMIC CHARGES
----------------------
   0 O :   -0.083642
   1 C :    0.076499
   2 C :   -0.097512
   3 C :   -0.008854
   4 N :   -0.033524
   5 N :   -0.030651
   6 C :    0.055249
   7 H :    0.025727
   8 H :    0.043089
   9 H :    0.030313
  10 H :    0.023305

  Mayer bond orders larger than 0.1
B(  0-O ,  1-C ) :   1.0945 B(  0-O ,  6-C ) :   1.0205 B(  1-C ,  2-C ) :   1.7516
B(  1-C ,  7-H ) :   0.9709 B(  2-C ,  3-C ) :   1.0630 B(  2-C ,  8-H ) :   0.9382
B(  3-C ,  4-N ) :   1.8382 B(  3-C ,  9-H ) :   0.9581 B(  4-N ,  5-N ) :   1.0592
B(  5-N ,  6-C ) :   1.9196 B(  6-C , 10-H ) :   0.9546

FINAL SINGLE POINT ENERGY      -338.818642557576

DIPOLE MOMENT
-------------
                                X             Y             Z
Electronic contribution:      1.93814       1.41310      -0.75709
Nuclear contribution   :     -2.37874      -2.51428       1.01219
                        -----------------------------------------
Total Dipole Moment    :     -0.44060      -1.10119       0.25511
                        -----------------------------------------
Magnitude (a.u.)       :      1.21319
Magnitude (Debye)      :      3.08368

                             ****ORCA TERMINATED NORMALLY****
TOTAL RUN TIME: 0 days 0 hours 0 minutes 5 seconds 953 msec
