                         Program Version 3.0.3 - RELEASE   -
|  1> ! RI PBE def2-SVP def2-SVP/J NBO PAL2
|  2> % maxcore 2000
|  3> % output
|  4>     # printlevel mini
|  5>     print[ P_Basis ] 0
|  6>     print[ P_SCFInfo ] 1
|  7>     print[ P_SCFIterInfo ] 1
|  8>     print[ P_OrbEn ] 0
|  9>     print[ P_Cartesian ] 0
| 10> end
| 11> *xyz 0 1
| 12>  O        0.5671140000    -0.9860740000    -0.8303120000
| 13>  C       -0.4287880000    -1.3343020000     0.0323720000
| 14>  N       -1.3867950000    -0.5684570000     0.3454420000
| 15>  C       -1.3735580000     0.7466410000    -0.0447510000
| 16>  C       -0.2669440000     1.5133730000    -0.1460170000
| 17>  C        1.0480480000     0.9971720000     0.1185780000
| 18>  N        1.4997040000    -0.1839300000    -0.0744570000
| 19>  H       -0.3844380000    -2.3530850000     0.4123500000
| 20>  H       -2.3551570000     1.1983250000    -0.1492120000
| 21>  H       -0.3766790000     2.5850170000    -0.2652620000
| 22>  H        1.7816830000     1.6459300000     0.5959800000
| 23> *
| 24>
| 25>                          ****END OF INPUT****
 Total Charge           Charge          ....    0
 Multiplicity           Mult            ....    1
 Number of Electrons    NEL             ....   50
 Basis Dimension        Dim             ....  118

MULLIKEN ATOMIC CHARGES
-----------------------
   0 O :   -0.232354
   1 C :    0.117919
   2 N :   -0.065298
   3 C :    0.044523
   4 C :   -0.001174
   5 C :   -0.012834
   6 N :    0.013378
   7 H :    0.040812
   8 H :    0.022540
   9 H :    0.020899
  10 H :    0.051588
Sum of atomic charges:   -0.0000000

LOEWDIN ATOMIC CHARGES
----------------------
   0 O :   -0.097233
   1 C :    0.079578
   2 N :   -0.059212
   3 C :    0.031645
   4 C :   -0.085200
   5 C :   -0.019015
   6 N :    0.012796
   7 H :    0.018046
   8 H :    0.031771
   9 H :    0.041349
  10 H :    0.045474

  Mayer bond orders larger than 0.1
B(  0-O ,  1-C ) :   1.1032 B(  0-O ,  6-N ) :   0.8570 B(  1-C ,  2-N ) :   1.8315
B(  1-C ,  6-N ) :   0.1059 B(  1-C ,  7-H ) :   0.9581 B(  2-N ,  3-C ) :   1.2570
B(  3-C ,  4-C ) :   1.6576 B(  3-C ,  8-H ) :   0.9618 B(  4-C ,  5-C ) :   1.1150
B(  4-C ,  9-H ) :   0.9461 B(  5-C ,  6-N ) :   1.8555 B(  5-C , 10-H ) :   0.9348

FINAL SINGLE POINT ENERGY      -338.808280951165

DIPOLE MOMENT
-------------
                                X             Y             Z
Electronic contribution:      0.80604      -2.13853      -0.71990
Nuclear contribution   :     -1.12681       2.87193       0.91474
                        -----------------------------------------
Total Dipole Moment    :     -0.32077       0.73340       0.19484
                        -----------------------------------------
Magnitude (a.u.)       :      0.82385
Magnitude (Debye)      :      2.09406

                             ****ORCA TERMINATED NORMALLY****
TOTAL RUN TIME: 0 days 0 hours 0 minutes 5 seconds 791 msec
