                         Program Version 3.0.3 - RELEASE   -
|  1> ! RI PBE def2-SVP def2-SVP/J NBO PAL2
|  2> % maxcore 2000
|  3> % output
|  4>     # printlevel mini
|  5>     print[ P_Basis ] 0
|  6>     print[ P_SCFInfo ] 1
|  7>     print[ P_SCFIterInfo ] 1
|  8>     print[ P_OrbEn ] 0
|  9>     print[ P_Cartesian ] 0
| 10> end
| 11> *xyz 0 1
| 12>  O        1.6127280000    -0.5073730000    -0.7855450000
| 13>  C        2.7786580000    -0.1377390000    -0.1214160000
| 14>  C        3.5978150000    -1.1857310000     0.5736720000
| 15>  C        4.0994210000    -0.5209660000    -0.6855450000
| 16>  N        4.9990600000     0.5939210000    -0.4994190000
| 17>  C        4.1670690000     1.7954780000    -0.4042560000
| 18>  C        2.9264500000     1.3073650000     0.3457270000
| 19>  H        0.9597660000    -0.7571700000    -0.1251870000
| 20>  H        3.2505410000    -2.2088310000     0.4799280000
| 21>  H        4.0965130000    -0.9303040000     1.5015660000
| 22>  H        4.1585520000    -1.1081030000    -1.5952460000
| 23>  H        5.6872650000     0.6520180000    -1.2355300000
| 24>  H        3.8648470000     2.1764540000    -1.3920220000
| 25>  H        4.6987570000     2.5937260000     0.1196980000
| 26>  H        2.0359780000     1.8786540000     0.0812190000
| 27>  H        3.0688890000     1.3692000000     1.4283460000
| 28> *
| 29>
| 30>                          ****END OF INPUT****
 Total Charge           Charge          ....    0
 Multiplicity           Mult            ....    1
 Number of Electrons    NEL             ....   54
 Basis Dimension        Dim             ....  143

MULLIKEN ATOMIC CHARGES
-----------------------
   0 O :   -0.218222
   1 C :   -0.142577
   2 C :    0.073018
   3 C :   -0.015311
   4 N :   -0.209449
   5 C :    0.115434
   6 C :    0.074834
   7 H :    0.156996
   8 H :    0.018688
   9 H :    0.007866
  10 H :    0.016293
  11 H :    0.098801
  12 H :   -0.001338
  13 H :    0.005662
  14 H :    0.006950
  15 H :    0.012357
Sum of atomic charges:    0.0000000

LOEWDIN ATOMIC CHARGES
----------------------
   0 O :   -0.090842
   1 C :   -0.007003
   2 C :   -0.059263
   3 C :    0.002761
   4 N :   -0.094319
   5 C :    0.024888
   6 C :   -0.045887
   7 H :    0.072167
   8 H :    0.027138
   9 H :    0.022218
  10 H :    0.018058
  11 H :    0.057255
  12 H :    0.003418
  13 H :    0.014836
  14 H :    0.029115
  15 H :    0.025459

  Mayer bond orders larger than 0.1
B(  0-O ,  1-C ) :   1.1474 B(  0-O ,  7-H ) :   0.9775 B(  1-C ,  2-C ) :   0.9634
B(  1-C ,  3-C ) :   0.9304 B(  1-C ,  6-C ) :   1.0640 B(  2-C ,  3-C ) :   0.9628
B(  2-C ,  8-H ) :   0.9244 B(  2-C ,  9-H ) :   0.9054 B(  3-C ,  4-N ) :   1.1019
B(  3-C , 10-H ) :   0.9320 B(  4-N ,  5-C ) :   1.0261 B(  4-N , 11-H ) :   0.9483
B(  5-C ,  6-C ) :   1.1115 B(  5-C , 12-H ) :   0.9261 B(  5-C , 13-H ) :   0.9374
B(  6-C , 14-H ) :   0.9255 B(  6-C , 15-H ) :   0.9026

FINAL SINGLE POINT ENERGY      -325.226263938704

DIPOLE MOMENT
-------------
                                X             Y             Z
Electronic contribution:     -1.11451      -1.73320      -1.23682
Nuclear contribution   :      0.96802       1.81162       1.32698
                        -----------------------------------------
Total Dipole Moment    :     -0.14648       0.07842       0.09016
                        -----------------------------------------
Magnitude (a.u.)       :      0.18904
Magnitude (Debye)      :      0.48050

                             ****ORCA TERMINATED NORMALLY****
TOTAL RUN TIME: 0 days 0 hours 0 minutes 7 seconds 271 msec
