                         Program Version 3.0.3 - RELEASE   -
|  1> ! RI PBE def2-SVP def2-SVP/J NBO PAL2
|  2> % maxcore 2000
|  3> % output
|  4>     # printlevel mini
|  5>     print[ P_Basis ] 0
|  6>     print[ P_SCFInfo ] 1
|  7>     print[ P_SCFIterInfo ] 1
|  8>     print[ P_OrbEn ] 0
|  9>     print[ P_Cartesian ] 0
| 10> end
| 11> *xyz 0 1
| 12>  O        0.9272000000    -0.0483170000    -0.0957120000
| 13>  C        2.3073590000     0.0543450000    -0.0676160000
| 14>  C        3.2739760000    -0.5515760000    -1.1075250000
| 15>  N        4.3249940000    -0.3565420000    -0.0558330000
| 16>  C        3.2403410000    -0.6581770000     0.9347560000
| 17>  C        4.3310170000     1.1297830000     0.0218450000
| 18>  C        2.8248030000     1.4838390000     0.0155160000
| 19>  H        0.6861510000    -0.9770190000    -0.1479730000
| 20>  H        3.4483770000    -0.0255220000    -2.0493720000
| 21>  H        3.1154160000    -1.6178090000    -1.2850530000
| 22>  H        3.3828130000    -0.2333090000     1.9314580000
| 23>  H        3.0778670000    -1.7368230000     0.9950440000
| 24>  H        4.8743960000     1.5337400000    -0.8335970000
| 25>  H        4.8453080000     1.4415790000     0.9320700000
| 26>  H        2.5132110000     2.0769940000    -0.8462710000
| 27>  H        2.4840590000     1.9846150000     0.9236540000
| 28> *
| 29>
| 30>                          ****END OF INPUT****
 Total Charge           Charge          ....    0
 Multiplicity           Mult            ....    1
 Number of Electrons    NEL             ....   54
 Basis Dimension        Dim             ....  143

MULLIKEN ATOMIC CHARGES
-----------------------
   0 O :   -0.200532
   1 C :   -0.252178
   2 C :    0.152659
   3 N :   -0.307683
   4 C :    0.149173
   5 C :    0.098181
   6 C :    0.099559
   7 H :    0.159955
   8 H :    0.012676
   9 H :    0.009049
  10 H :    0.012906
  11 H :    0.010426
  12 H :    0.012298
  13 H :    0.011730
  14 H :    0.016267
  15 H :    0.015511
Sum of atomic charges:   -0.0000000

LOEWDIN ATOMIC CHARGES
----------------------
   0 O :   -0.082164
   1 C :   -0.010523
   2 C :    0.013459
   3 N :   -0.121823
   4 C :    0.012933
   5 C :    0.020060
   6 C :   -0.045741
   7 H :    0.074571
   8 H :    0.011212
   9 H :    0.015279
  10 H :    0.011362
  11 H :    0.015273
  12 H :    0.019486
  13 H :    0.019451
  14 H :    0.023710
  15 H :    0.023454

  Mayer bond orders larger than 0.1
B(  0-O ,  1-C ) :   1.1721 B(  0-O ,  7-H ) :   0.9723 B(  1-C ,  2-C ) :   0.9592
B(  1-C ,  4-C ) :   0.9589 B(  1-C ,  6-C ) :   1.0556 B(  2-C ,  3-N ) :   0.9753
B(  2-C ,  8-H ) :   0.9358 B(  2-C ,  9-H ) :   0.9352 B(  3-N ,  4-C ) :   0.9754
B(  3-N ,  5-C ) :   1.0100 B(  4-C , 10-H ) :   0.9356 B(  4-C , 11-H ) :   0.9359
B(  5-C ,  6-C ) :   1.0451 B(  5-C , 12-H ) :   0.9320 B(  5-C , 13-H ) :   0.9317
B(  6-C , 14-H ) :   0.9237 B(  6-C , 15-H ) :   0.9247

FINAL SINGLE POINT ENERGY      -325.213383913169

DIPOLE MOMENT
-------------
                                X             Y             Z
Electronic contribution:     -1.74880      -1.28765      -0.09805
Nuclear contribution   :      1.43754       1.07898       0.08015
                        -----------------------------------------
Total Dipole Moment    :     -0.31125      -0.20866      -0.01790
                        -----------------------------------------
Magnitude (a.u.)       :      0.37515
Magnitude (Debye)      :      0.95357

                             ****ORCA TERMINATED NORMALLY****
TOTAL RUN TIME: 0 days 0 hours 0 minutes 6 seconds 668 msec
