                         Program Version 3.0.3 - RELEASE   -
|  1> ! RI PBE def2-SVP def2-SVP/J NBO PAL2
|  2> % maxcore 2000
|  3> % output
|  4>     # printlevel mini
|  5>     print[ P_Basis ] 0
|  6>     print[ P_SCFInfo ] 1
|  7>     print[ P_SCFIterInfo ] 1
|  8>     print[ P_OrbEn ] 0
|  9>     print[ P_Cartesian ] 0
| 10> end
| 11> *xyz 0 1
| 12>  O        1.6213820000    -0.4853160000    -0.9077680000
| 13>  C        2.7670170000    -0.1620610000    -0.1866860000
| 14>  C        3.5279770000    -1.2274190000     0.5326180000
| 15>  C        4.1054460000    -0.5709320000    -0.6977030000
| 16>  C        5.0288540000     0.6232800000    -0.4940210000
| 17>  N        4.1738200000     1.7955370000    -0.2734370000
| 18>  C        2.9395870000     1.2744390000     0.3166020000
| 19>  H        0.9331270000    -0.7345380000    -0.2849520000
| 20>  H        3.1798000000    -2.2478790000     0.4188580000
| 21>  H        3.9659550000    -0.9934370000     1.4983810000
| 22>  H        4.1755190000    -1.1701180000    -1.5971200000
| 23>  H        5.6849840000     0.7900120000    -1.3500870000
| 24>  H        5.6707170000     0.4736710000     0.3818750000
| 25>  H        3.9419650000     2.1839870000    -1.1798420000
| 26>  H        2.0823130000     1.8848840000     0.0286380000
| 27>  H        3.0197480000     1.2996000000     1.4095540000
| 28> *
| 29>
| 30>                          ****END OF INPUT****
 Total Charge           Charge          ....    0
 Multiplicity           Mult            ....    1
 Number of Electrons    NEL             ....   54
 Basis Dimension        Dim             ....  143

MULLIKEN ATOMIC CHARGES
-----------------------
   0 O :   -0.220524
   1 C :   -0.133785
   2 C :    0.059568
   3 C :   -0.177113
   4 C :    0.182808
   5 N :   -0.248533
   6 C :    0.184776
   7 H :    0.160403
   8 H :    0.022844
   9 H :    0.017868
  10 H :    0.021506
  11 H :    0.014013
  12 H :    0.007792
  13 H :    0.096449
  14 H :    0.003588
  15 H :    0.008337
Sum of atomic charges:    0.0000000

LOEWDIN ATOMIC CHARGES
----------------------
   0 O :   -0.090339
   1 C :   -0.013444
   2 C :   -0.047446
   3 C :   -0.058637
   4 C :    0.018463
   5 N :   -0.101123
   6 C :    0.005923
   7 H :    0.074165
   8 H :    0.028512
   9 H :    0.020435
  10 H :    0.027154
  11 H :    0.024726
  12 H :    0.018120
  13 H :    0.052750
  14 H :    0.023277
  15 H :    0.017462

  Mayer bond orders larger than 0.1
B(  0-O ,  1-C ) :   1.1417 B(  0-O ,  7-H ) :   0.9790 B(  1-C ,  2-C ) :   0.9776
B(  1-C ,  3-C ) :   0.9482 B(  1-C ,  6-C ) :   1.0098 B(  2-C ,  3-C ) :   0.9803
B(  2-C ,  8-H ) :   0.9257 B(  2-C ,  9-H ) :   0.9225 B(  3-C ,  4-C ) :   1.0329
B(  3-C , 10-H ) :   0.9329 B(  4-C ,  5-N ) :   1.0828 B(  4-C , 11-H ) :   0.9466
B(  4-C , 12-H ) :   0.9116 B(  5-N ,  6-C ) :   1.0904 B(  5-N , 13-H ) :   0.9495
B(  6-C , 14-H ) :   0.9339 B(  6-C , 15-H ) :   0.9082

FINAL SINGLE POINT ENERGY      -325.225565623493

DIPOLE MOMENT
-------------
                                X             Y             Z
Electronic contribution:     -2.14652      -0.16818      -1.41140
Nuclear contribution   :      1.82868      -0.15096       1.51983
                        -----------------------------------------
Total Dipole Moment    :     -0.31785      -0.31914       0.10843
                        -----------------------------------------
Magnitude (a.u.)       :      0.46328
Magnitude (Debye)      :      1.17757

                             ****ORCA TERMINATED NORMALLY****
TOTAL RUN TIME: 0 days 0 hours 0 minutes 7 seconds 392 msec
