                         Program Version 3.0.3 - RELEASE   -
|  1> ! RI PBE def2-SVP def2-SVP/J NBO PAL2
|  2> % maxcore 2000
|  3> % output
|  4>     # printlevel mini
|  5>     print[ P_Basis ] 0
|  6>     print[ P_SCFInfo ] 1
|  7>     print[ P_SCFIterInfo ] 1
|  8>     print[ P_OrbEn ] 0
|  9>     print[ P_Cartesian ] 0
| 10> end
| 11> *xyz 0 1
| 12>  O        1.0438140000     0.0330240000    -0.2089100000
| 13>  C        2.4252180000     0.0743880000    -0.1323640000
| 14>  C        3.3845940000    -0.5461090000    -1.1793000000
| 15>  C        4.3928060000    -0.2847120000    -0.0384800000
| 16>  C        3.2679720000    -0.6603230000     0.9394080000
| 17>  N        4.4244520000     1.1792470000     0.1085490000
| 18>  C        2.9807190000     1.4897070000    -0.0126130000
| 19>  H        0.7637610000    -0.8850120000    -0.2433230000
| 20>  H        3.5289390000    -0.0210830000    -2.1269760000
| 21>  H        3.1885000000    -1.6076080000    -1.3450340000
| 22>  H        5.3727050000    -0.7549520000    -0.0010880000
| 23>  H        3.3122740000    -0.2411100000     1.9454300000
| 24>  H        3.0726560000    -1.7338360000     0.9582860000
| 25>  H        4.9379660000     1.5928030000    -0.6601810000
| 26>  H        2.7387810000     2.0909920000    -0.8933950000
| 27>  H        2.5986440000     2.0007630000     0.8751910000
| 28> *
| 29>
| 30>                          ****END OF INPUT****
 Total Charge           Charge          ....    0
 Multiplicity           Mult            ....    1
 Number of Electrons    NEL             ....   54
 Basis Dimension        Dim             ....  143

MULLIKEN ATOMIC CHARGES
-----------------------
   0 O :   -0.206094
   1 C :   -0.200225
   2 C :    0.094072
   3 C :   -0.094486
   4 C :    0.103715
   5 N :   -0.187101
   6 C :    0.192362
   7 H :    0.159328
   8 H :    0.000874
   9 H :    0.004442
  10 H :   -0.011548
  11 H :    0.015615
  12 H :    0.009412
  13 H :    0.097037
  14 H :    0.010145
  15 H :    0.012453
Sum of atomic charges:    0.0000000

LOEWDIN ATOMIC CHARGES
----------------------
   0 O :   -0.081925
   1 C :   -0.002176
   2 C :   -0.056180
   3 C :    0.024913
   4 C :   -0.041870
   5 N :   -0.099810
   6 C :    0.027110
   7 H :    0.074316
   8 H :    0.010587
   9 H :    0.017872
  10 H :    0.009086
  11 H :    0.018552
  12 H :    0.019451
  13 H :    0.049492
  14 H :    0.014231
  15 H :    0.016351

  Mayer bond orders larger than 0.1
B(  0-O ,  1-C ) :   1.1740 B(  0-O ,  7-H ) :   0.9726 B(  1-C ,  2-C ) :   0.9280
B(  1-C ,  4-C ) :   0.9457 B(  1-C ,  6-C ) :   1.0159 B(  2-C ,  3-C ) :   0.9711
B(  2-C ,  8-H ) :   0.9204 B(  2-C ,  9-H ) :   0.9276 B(  3-C ,  4-C ) :   0.9781
B(  3-C ,  5-N ) :   1.0668 B(  3-C , 10-H ) :   0.9553 B(  4-C , 11-H ) :   0.9177
B(  4-C , 12-H ) :   0.9368 B(  5-N ,  6-C ) :   1.0308 B(  5-N , 13-H ) :   0.9443
B(  6-C , 14-H ) :   0.9325 B(  6-C , 15-H ) :   0.9254

FINAL SINGLE POINT ENERGY      -325.224037403784

DIPOLE MOMENT
-------------
                                X             Y             Z
Electronic contribution:     -1.56403       0.55107       0.26590
Nuclear contribution   :      1.60162      -1.14746      -0.68338
                        -----------------------------------------
Total Dipole Moment    :      0.03759      -0.59639      -0.41748
                        -----------------------------------------
Magnitude (a.u.)       :      0.72896
Magnitude (Debye)      :      1.85286

                             ****ORCA TERMINATED NORMALLY****
TOTAL RUN TIME: 0 days 0 hours 0 minutes 7 seconds 473 msec
