                         Program Version 3.0.3 - RELEASE   -
|  1> ! RI PBE def2-SVP def2-SVP/J NBO PAL2
|  2> % maxcore 2000
|  3> % output
|  4>     # printlevel mini
|  5>     print[ P_Basis ] 0
|  6>     print[ P_SCFInfo ] 1
|  7>     print[ P_SCFIterInfo ] 1
|  8>     print[ P_OrbEn ] 0
|  9>     print[ P_Cartesian ] 0
| 10> end
| 11> *xyz 0 1
| 12>  O        1.1586350000     0.0381480000     0.0846560000
| 13>  C        2.5437820000    -0.0510030000    -0.0475280000
| 14>  C        3.0977440000    -1.0351110000    -1.1057240000
| 15>  C        4.6090330000    -0.8289610000    -0.9376890000
| 16>  C        4.6134020000     0.7256760000    -0.9242550000
| 17>  C        3.1031780000     0.9444940000    -1.0782100000
| 18>  N        2.6902570000    -0.0323960000    -2.1192310000
| 19>  H        0.8220260000    -0.8097580000     0.3840770000
| 20>  H        3.0437670000    -0.0687090000     0.9296950000
| 21>  H        2.7194320000    -2.0535540000    -1.2107450000
| 22>  H        5.1708370000    -1.2520200000    -1.7731870000
| 23>  H        5.0012780000    -1.2644900000    -0.0151840000
| 24>  H        5.1702980000     1.1588520000    -1.7576310000
| 25>  H        5.0146370000     1.1440590000     0.0018480000
| 26>  H        2.7198640000     1.9617890000    -1.1496510000
| 27>  H        3.2931200000    -0.0234260000    -2.9397220000
| 28> *
| 29>
| 30>                          ****END OF INPUT****
 Total Charge           Charge          ....    0
 Multiplicity           Mult            ....    1
 Number of Electrons    NEL             ....   54
 Basis Dimension        Dim             ....  143

MULLIKEN ATOMIC CHARGES
-----------------------
   0 O :   -0.227259
   1 C :    0.109686
   2 C :   -0.110467
   3 C :    0.100953
   4 C :    0.101985
   5 C :   -0.088136
   6 N :   -0.142202
   7 H :    0.158753
   8 H :   -0.002977
   9 H :   -0.012837
  10 H :    0.008766
  11 H :    0.006366
  12 H :    0.009562
  13 H :    0.008980
  14 H :   -0.001797
  15 H :    0.080625
Sum of atomic charges:   -0.0000000

LOEWDIN ATOMIC CHARGES
----------------------
   0 O :   -0.092916
   1 C :    0.041154
   2 C :    0.001980
   3 C :   -0.046947
   4 C :   -0.045409
   5 C :    0.020185
   6 N :   -0.085721
   7 H :    0.073154
   8 H :   -0.004243
   9 H :    0.004513
  10 H :    0.020075
  11 H :    0.020795
  12 H :    0.020460
  13 H :    0.022139
  14 H :    0.011737
  15 H :    0.039044

  Mayer bond orders larger than 0.1
B(  0-O ,  1-C ) :   1.1491 B(  0-O ,  7-H ) :   0.9802 B(  1-C ,  2-C ) :   0.9272
B(  1-C ,  5-C ) :   0.9443 B(  1-C ,  8-H ) :   0.9433 B(  2-C ,  3-C ) :   1.0318
B(  2-C ,  6-N ) :   1.0144 B(  2-C ,  9-H ) :   0.9568 B(  3-C ,  4-C ) :   1.0865
B(  3-C , 10-H ) :   0.9107 B(  3-C , 11-H ) :   0.9107 B(  4-C ,  5-C ) :   1.0324
B(  4-C , 12-H ) :   0.9138 B(  4-C , 13-H ) :   0.9113 B(  5-C ,  6-N ) :   1.0065
B(  5-C , 14-H ) :   0.9607 B(  6-N , 15-H ) :   0.9428

FINAL SINGLE POINT ENERGY      -325.216204545979

DIPOLE MOMENT
-------------
                                X             Y             Z
Electronic contribution:     -4.26566       0.29930       0.02110
Nuclear contribution   :      4.88855      -0.79055       0.18923
                        -----------------------------------------
Total Dipole Moment    :      0.62289      -0.49126       0.21033
                        -----------------------------------------
Magnitude (a.u.)       :      0.82071
Magnitude (Debye)      :      2.08607

                             ****ORCA TERMINATED NORMALLY****
TOTAL RUN TIME: 0 days 0 hours 0 minutes 7 seconds 448 msec
