                         Program Version 3.0.3 - RELEASE   -
|  1> ! RI PBE def2-SVP def2-SVP/J NBO PAL2
|  2> % maxcore 2000
|  3> % output
|  4>     # printlevel mini
|  5>     print[ P_Basis ] 0
|  6>     print[ P_SCFInfo ] 1
|  7>     print[ P_SCFIterInfo ] 1
|  8>     print[ P_OrbEn ] 0
|  9>     print[ P_Cartesian ] 0
| 10> end
| 11> *xyz 0 1
| 12>  O        1.1723970000    -0.0917070000     0.2724340000
| 13>  C        2.3508020000    -0.0926580000     0.1364910000
| 14>  C        3.4803480000    -1.1092620000    -0.0646820000
| 15>  C        4.2449850000    -0.9191000000     1.2578790000
| 16>  C        4.2523200000     0.6381600000     1.3106170000
| 17>  C        3.4899360000     0.9245370000     0.0041850000
| 18>  N        4.0299650000    -0.0630770000    -0.9709200000
| 19>  H        3.3272830000    -2.1119890000    -0.4566820000
| 20>  H        5.2486500000    -1.3449790000     1.1970920000
| 21>  H        3.7364940000    -1.3736970000     2.1105890000
| 22>  H        5.2599650000     1.0577170000     1.2784580000
| 23>  H        3.7478460000     1.0388090000     2.1922760000
| 24>  H        3.3464550000     1.9528860000    -0.3190290000
| 25>  H        5.0480550000    -0.0670300000    -0.9959980000
| 26> *
| 27>
| 28>                          ****END OF INPUT****
 Total Charge           Charge          ....    0
 Multiplicity           Mult            ....    1
 Number of Electrons    NEL             ....   52
 Basis Dimension        Dim             ....  133

MULLIKEN ATOMIC CHARGES
-----------------------
   0 O :   -0.094986
   1 C :    0.129051
   2 C :   -0.155853
   3 C :    0.107308
   4 C :    0.109898
   5 C :   -0.158560
   6 N :   -0.136189
   7 H :    0.013374
   8 H :    0.017942
   9 H :    0.024337
  10 H :    0.017060
  11 H :    0.023362
  12 H :    0.014033
  13 H :    0.089222
Sum of atomic charges:   -0.0000000

LOEWDIN ATOMIC CHARGES
----------------------
   0 O :   -0.082683
   1 C :    0.068807
   2 C :   -0.008055
   3 C :   -0.040472
   4 C :   -0.040103
   5 C :   -0.008299
   6 N :   -0.079764
   7 H :    0.017418
   8 H :    0.023974
   9 H :    0.029834
  10 H :    0.023808
  11 H :    0.029622
  12 H :    0.017550
  13 H :    0.048364

  Mayer bond orders larger than 0.1
B(  0-O ,  1-C ) :   2.3197 B(  1-C ,  2-C ) :   0.8259 B(  1-C ,  5-C ) :   0.8253
B(  2-C ,  3-C ) :   1.0204 B(  2-C ,  6-N ) :   0.9588 B(  2-C ,  7-H ) :   0.9768
B(  3-C ,  4-C ) :   1.0823 B(  3-C ,  8-H ) :   0.9131 B(  3-C ,  9-H ) :   0.9153
B(  4-C ,  5-C ) :   1.0202 B(  4-C , 10-H ) :   0.9130 B(  4-C , 11-H ) :   0.9154
B(  5-C ,  6-N ) :   0.9581 B(  5-C , 12-H ) :   0.9777 B(  6-N , 13-H ) :   0.9151

FINAL SINGLE POINT ENERGY      -324.025840950015

DIPOLE MOMENT
-------------
                                X             Y             Z
Electronic contribution:     -5.06107       0.10598      -2.41858
Nuclear contribution   :      6.26735      -0.12521       2.82585
                        -----------------------------------------
Total Dipole Moment    :      1.20628      -0.01923       0.40726
                        -----------------------------------------
Magnitude (a.u.)       :      1.27332
Magnitude (Debye)      :      3.23653

                             ****ORCA TERMINATED NORMALLY****
TOTAL RUN TIME: 0 days 0 hours 0 minutes 7 seconds 185 msec
