                         Program Version 3.0.3 - RELEASE   -
|  1> ! RI PBE def2-SVP def2-SVP/J NBO PAL2
|  2> % maxcore 2000
|  3> % output
|  4>     # printlevel mini
|  5>     print[ P_Basis ] 0
|  6>     print[ P_SCFInfo ] 1
|  7>     print[ P_SCFIterInfo ] 1
|  8>     print[ P_OrbEn ] 0
|  9>     print[ P_Cartesian ] 0
| 10> end
| 11> *xyz 0 1
| 12>  O        0.6828240000     0.0452990000    -0.2681230000
| 13>  C        2.0233110000     0.0237620000     0.1014120000
| 14>  C        2.9820430000    -0.9677470000    -0.4972670000
| 15>  C        2.5153030000    -1.7634240000    -1.7014510000
| 16>  C        2.6478400000    -0.7614400000    -2.8600500000
| 17>  N        2.5545180000     0.5793400000    -2.2797620000
| 18>  C        3.0144350000     0.4851320000    -0.9200990000
| 19>  H        0.2462190000    -0.7216240000     0.1118890000
| 20>  H        2.2107740000     0.3198020000     1.1316730000
| 21>  H        3.7491050000    -1.3789460000     0.1475710000
| 22>  H        1.4792840000    -2.0977300000    -1.5885500000
| 23>  H        3.1316160000    -2.6530150000    -1.8479840000
| 24>  H        1.8920830000    -0.8922140000    -3.6379680000
| 25>  H        3.6292340000    -0.8774610000    -3.3334570000
| 26>  H        1.5874200000     0.8802760000    -2.2829830000
| 27>  H        3.8166920000     1.1479800000    -0.6142500000
| 28> *
| 29>
| 30>                          ****END OF INPUT****
 Total Charge           Charge          ....    0
 Multiplicity           Mult            ....    1
 Number of Electrons    NEL             ....   54
 Basis Dimension        Dim             ....  143

MULLIKEN ATOMIC CHARGES
-----------------------
   0 O :   -0.229094
   1 C :    0.104299
   2 C :   -0.169110
   3 C :    0.080711
   4 C :    0.114545
   5 N :   -0.181807
   6 C :   -0.039795
   7 H :    0.168663
   8 H :    0.002474
   9 H :    0.017078
  10 H :   -0.013956
  11 H :    0.008577
  12 H :    0.006068
  13 H :    0.010112
  14 H :    0.101630
  15 H :    0.019606
Sum of atomic charges:   -0.0000000

LOEWDIN ATOMIC CHARGES
----------------------
   0 O :   -0.091551
   1 C :    0.025965
   2 C :   -0.066316
   3 C :   -0.045636
   4 C :    0.021493
   5 N :   -0.084204
   6 C :   -0.009997
   7 H :    0.077420
   8 H :    0.010018
   9 H :    0.023169
  10 H :    0.013604
  11 H :    0.026722
  12 H :    0.018334
  13 H :    0.016036
  14 H :    0.050031
  15 H :    0.014911

  Mayer bond orders larger than 0.1
B(  0-O ,  1-C ) :   1.1481 B(  0-O ,  7-H ) :   0.9731 B(  1-C ,  2-C ) :   0.9239
B(  1-C ,  6-C ) :   0.9063 B(  1-C ,  8-H ) :   0.9426 B(  2-C ,  3-C ) :   1.0954
B(  2-C ,  6-C ) :   0.9158 B(  2-C ,  9-H ) :   0.9407 B(  3-C ,  4-C ) :   1.0754
B(  3-C , 10-H ) :   0.9030 B(  3-C , 11-H ) :   0.9304 B(  4-C ,  5-N ) :   1.0663
B(  4-C , 12-H ) :   0.9418 B(  4-C , 13-H ) :   0.9394 B(  5-N ,  6-C ) :   1.1587
B(  5-N , 14-H ) :   0.9397 B(  6-C , 15-H ) :   0.9500

FINAL SINGLE POINT ENERGY      -325.228978472720

DIPOLE MOMENT
-------------
                                X             Y             Z
Electronic contribution:     -1.27649       2.33474       1.54226
Nuclear contribution   :      1.04458      -3.03634      -1.04877
                        -----------------------------------------
Total Dipole Moment    :     -0.23192      -0.70161       0.49349
                        -----------------------------------------
Magnitude (a.u.)       :      0.88858
Magnitude (Debye)      :      2.25858

                             ****ORCA TERMINATED NORMALLY****
TOTAL RUN TIME: 0 days 0 hours 0 minutes 7 seconds 203 msec
