                         Program Version 3.0.3 - RELEASE   -
|  1> ! RI PBE def2-SVP def2-SVP/J NBO PAL2
|  2> % maxcore 2000
|  3> % output
|  4>     # printlevel mini
|  5>     print[ P_Basis ] 0
|  6>     print[ P_SCFInfo ] 1
|  7>     print[ P_SCFIterInfo ] 1
|  8>     print[ P_OrbEn ] 0
|  9>     print[ P_Cartesian ] 0
| 10> end
| 11> *xyz 0 1
| 12>  O        1.0288080000    -0.0033310000     0.0352590000
| 13>  C        2.4266310000     0.0826100000    -0.0159420000
| 14>  C        3.0103630000     1.1256650000    -1.0108020000
| 15>  C        2.6144190000     0.1289530000    -2.1261030000
| 16>  C        3.0260290000    -0.8927460000    -1.0420100000
| 17>  N        4.4570050000    -0.6592120000    -0.8206460000
| 18>  C        4.4968280000     0.8290910000    -0.8460880000
| 19>  H        0.6961720000     0.7651080000     0.5052730000
| 20>  H        2.8759410000     0.0495000000     0.9839980000
| 21>  H        2.6967170000     2.1700070000    -1.0088670000
| 22>  H        3.1932200000     0.1406730000    -3.0532400000
| 23>  H        1.5455600000     0.1323160000    -2.3277420000
| 24>  H        2.7432160000    -1.9439700000    -1.0642760000
| 25>  H        4.9918410000    -1.0391690000    -1.5913230000
| 26>  H        5.0950850000     1.2222480000    -1.6732870000
| 27>  H        4.9052840000     1.2235560000     0.0892060000
| 28> *
| 29>
| 30>                          ****END OF INPUT****
 Total Charge           Charge          ....    0
 Multiplicity           Mult            ....    1
 Number of Electrons    NEL             ....   54
 Basis Dimension        Dim             ....  143

MULLIKEN ATOMIC CHARGES
-----------------------
   0 O :   -0.231565
   1 C :    0.123925
   2 C :   -0.216574
   3 C :    0.110775
   4 C :   -0.071721
   5 N :   -0.192121
   6 C :    0.183761
   7 H :    0.159993
   8 H :    0.005319
   9 H :   -0.010528
  10 H :   -0.001109
  11 H :    0.025877
  12 H :   -0.003039
  13 H :    0.098488
  14 H :    0.008012
  15 H :    0.010509
Sum of atomic charges:   -0.0000000

LOEWDIN ATOMIC CHARGES
----------------------
   0 O :   -0.098799
   1 C :    0.046639
   2 C :   -0.052148
   3 C :   -0.040064
   4 C :    0.018852
   5 N :   -0.101420
   6 C :    0.026238
   7 H :    0.073605
   8 H :   -0.000167
   9 H :    0.008518
  10 H :    0.009182
  11 H :    0.023003
  12 H :    0.010845
  13 H :    0.049690
  14 H :    0.012591
  15 H :    0.013434

  Mayer bond orders larger than 0.1
B(  0-O ,  1-C ) :   1.1481 B(  0-O ,  7-H ) :   0.9796 B(  1-C ,  2-C ) :   0.9220
B(  1-C ,  4-C ) :   0.9349 B(  1-C ,  8-H ) :   0.9363 B(  2-C ,  3-C ) :   0.9782
B(  2-C ,  6-C ) :   1.0222 B(  2-C ,  9-H ) :   0.9421 B(  3-C ,  4-C ) :   0.9839
B(  3-C , 10-H ) :   0.9314 B(  3-C , 11-H ) :   0.9255 B(  4-C ,  5-N ) :   1.0758
B(  4-C , 12-H ) :   0.9480 B(  5-N ,  6-C ) :   1.0100 B(  5-N , 13-H ) :   0.9444
B(  6-C , 14-H ) :   0.9350 B(  6-C , 15-H ) :   0.9340

FINAL SINGLE POINT ENERGY      -325.216481350098

DIPOLE MOMENT
-------------
                                X             Y             Z
Electronic contribution:     -1.78618      -1.21010       1.52275
Nuclear contribution   :      1.82540       1.80117      -1.68986
                        -----------------------------------------
Total Dipole Moment    :      0.03921       0.59107      -0.16711
                        -----------------------------------------
Magnitude (a.u.)       :      0.61549
Magnitude (Debye)      :      1.56445

                             ****ORCA TERMINATED NORMALLY****
TOTAL RUN TIME: 0 days 0 hours 0 minutes 7 seconds 203 msec
