                         Program Version 3.0.3 - RELEASE   -
|  1> ! RI PBE def2-SVP def2-SVP/J NBO PAL2
|  2> % maxcore 2000
|  3> % output
|  4>     # printlevel mini
|  5>     print[ P_Basis ] 0
|  6>     print[ P_SCFInfo ] 1
|  7>     print[ P_SCFIterInfo ] 1
|  8>     print[ P_OrbEn ] 0
|  9>     print[ P_Cartesian ] 0
| 10> end
| 11> *xyz 0 1
| 12>  O        1.1254480000     0.0807910000     0.0963870000
| 13>  C        2.3132330000     0.0783530000     0.1666630000
| 14>  C        3.4322230000     1.1194880000     0.1004760000
| 15>  C        4.0456710000     0.1023440000    -0.9050190000
| 16>  C        3.4395350000    -0.9550110000     0.0632320000
| 17>  N        4.1357050000    -0.7286780000     1.3335480000
| 18>  C        4.1919820000     0.7603460000     1.3807340000
| 19>  H        3.2541060000     2.1660690000    -0.1305400000
| 20>  H        5.1351280000     0.1002860000    -0.9828910000
| 21>  H        3.5763880000     0.1305980000    -1.8888790000
| 22>  H        3.2741520000    -1.9966700000    -0.1964040000
| 23>  H        5.0710070000    -1.1122760000     1.2834750000
| 24>  H        5.2181330000     1.1376690000     1.3648410000
| 25>  H        3.6974000000     1.1424890000     2.2772850000
| 26> *
| 27>
| 28>                          ****END OF INPUT****
 Total Charge           Charge          ....    0
 Multiplicity           Mult            ....    1
 Number of Electrons    NEL             ....   52
 Basis Dimension        Dim             ....  133

MULLIKEN ATOMIC CHARGES
-----------------------
   0 O :   -0.101294
   1 C :    0.136274
   2 C :   -0.257165
   3 C :    0.112668
   4 C :   -0.119010
   5 N :   -0.189188
   6 C :    0.199178
   7 H :    0.014226
   8 H :    0.009574
   9 H :    0.040473
  10 H :    0.010531
  11 H :    0.104529
  12 H :    0.014302
  13 H :    0.024901
Sum of atomic charges:   -0.0000000

LOEWDIN ATOMIC CHARGES
----------------------
   0 O :   -0.092301
   1 C :    0.062772
   2 C :   -0.058973
   3 C :   -0.030414
   4 C :   -0.004543
   5 N :   -0.096570
   6 C :    0.036319
   7 H :    0.022259
   8 H :    0.023411
   9 H :    0.031736
  10 H :    0.017530
  11 H :    0.052133
  12 H :    0.015187
  13 H :    0.021455

  Mayer bond orders larger than 0.1
B(  0-O ,  1-C ) :   2.3039 B(  1-C ,  2-C ) :   0.8365 B(  1-C ,  4-C ) :   0.8011
B(  2-C ,  3-C ) :   0.9428 B(  2-C ,  6-C ) :   1.0138 B(  2-C ,  7-H ) :   0.9590
B(  3-C ,  4-C ) :   0.9233 B(  3-C ,  8-H ) :   0.8953 B(  3-C ,  9-H ) :   0.9432
B(  4-C ,  5-N ) :   1.0613 B(  4-C , 10-H ) :   0.9710 B(  5-N ,  6-C ) :   1.0055
B(  5-N , 11-H ) :   0.9440 B(  6-C , 12-H ) :   0.9385 B(  6-C , 13-H ) :   0.9350

FINAL SINGLE POINT ENERGY      -324.022485410098

DIPOLE MOMENT
-------------
                                X             Y             Z
Electronic contribution:     -4.80490      -0.89460       0.20385
Nuclear contribution   :      6.11531       1.06514      -0.51753
                        -----------------------------------------
Total Dipole Moment    :      1.31040       0.17054      -0.31368
                        -----------------------------------------
Magnitude (a.u.)       :      1.35817
Magnitude (Debye)      :      3.45219

                             ****ORCA TERMINATED NORMALLY****
TOTAL RUN TIME: 0 days 0 hours 0 minutes 6 seconds 705 msec
