                         Program Version 3.0.3 - RELEASE   -
|  1> ! RI PBE def2-SVP def2-SVP/J NBO PAL2
|  2> % maxcore 2000
|  3> % output
|  4>     # printlevel mini
|  5>     print[ P_Basis ] 0
|  6>     print[ P_SCFInfo ] 1
|  7>     print[ P_SCFIterInfo ] 1
|  8>     print[ P_OrbEn ] 0
|  9>     print[ P_Cartesian ] 0
| 10> end
| 11> *xyz 0 1
| 12>  O        0.6285670000     0.0327320000    -0.3425960000
| 13>  C        1.9812390000     0.0807590000     0.0060390000
| 14>  C        2.9963740000    -0.8545020000    -0.5803640000
| 15>  C        2.6057550000    -1.6303340000    -1.8236220000
| 16>  N        2.0204520000    -0.6797970000    -2.7663930000
| 17>  C        2.5681580000     0.6343840000    -2.4397020000
| 18>  C        2.9674130000     0.6052440000    -0.9767900000
| 19>  H        0.2220550000    -0.6910470000     0.1415330000
| 20>  H        2.1558170000     0.3744370000     1.0394690000
| 21>  H        3.7679010000    -1.2568900000     0.0665390000
| 22>  H        1.8975470000    -2.4420100000    -1.6317830000
| 23>  H        3.5071560000    -2.0865470000    -2.2496410000
| 24>  H        1.0278710000    -0.6410000000    -2.5827530000
| 25>  H        1.8342580000     1.4091930000    -2.6743520000
| 26>  H        3.4622990000     0.8372860000    -3.0408550000
| 27>  H        3.7164380000     1.3071930000    -0.6291370000
| 28> *
| 29>
| 30>                          ****END OF INPUT****
 Total Charge           Charge          ....    0
 Multiplicity           Mult            ....    1
 Number of Electrons    NEL             ....   54
 Basis Dimension        Dim             ....  143

MULLIKEN ATOMIC CHARGES
-----------------------
   0 O :   -0.231443
   1 C :    0.103891
   2 C :   -0.185565
   3 C :    0.208462
   4 N :   -0.273142
   5 C :    0.218276
   6 C :   -0.177816
   7 H :    0.165236
   8 H :    0.005641
   9 H :    0.015929
  10 H :    0.002849
  11 H :    0.006598
  12 H :    0.097092
  13 H :    0.015846
  14 H :    0.007739
  15 H :    0.020407
Sum of atomic charges:   -0.0000000

LOEWDIN ATOMIC CHARGES
----------------------
   0 O :   -0.097519
   1 C :    0.032261
   2 C :   -0.076934
   3 C :    0.021310
   4 N :   -0.100269
   5 C :    0.025439
   6 C :   -0.062190
   7 H :    0.077223
   8 H :    0.013299
   9 H :    0.021912
  10 H :    0.016590
  11 H :    0.019250
  12 H :    0.041786
  13 H :    0.024282
  14 H :    0.019029
  15 H :    0.024531

  Mayer bond orders larger than 0.1
B(  0-O ,  1-C ) :   1.1419 B(  0-O ,  7-H ) :   0.9769 B(  1-C ,  2-C ) :   0.9172
B(  1-C ,  6-C ) :   0.9422 B(  1-C ,  8-H ) :   0.9392 B(  2-C ,  3-C ) :   1.0187
B(  2-C ,  6-C ) :   0.9569 B(  2-C ,  9-H ) :   0.9357 B(  3-C ,  4-N ) :   1.0723
B(  3-C , 10-H ) :   0.9418 B(  3-C , 11-H ) :   0.9283 B(  4-N ,  5-C ) :   1.0678
B(  4-N , 12-H ) :   0.9507 B(  5-C ,  6-C ) :   1.0261 B(  5-C , 13-H ) :   0.9406
B(  5-C , 14-H ) :   0.9292 B(  6-C , 15-H ) :   0.9364

FINAL SINGLE POINT ENERGY      -325.231549264683

DIPOLE MOMENT
-------------
                                X             Y             Z
Electronic contribution:     -1.74031       0.50495       0.93104
Nuclear contribution   :      1.69052      -0.75859      -0.13262
                        -----------------------------------------
Total Dipole Moment    :     -0.04979      -0.25364       0.79842
                        -----------------------------------------
Magnitude (a.u.)       :      0.83922
Magnitude (Debye)      :      2.13313

                             ****ORCA TERMINATED NORMALLY****
TOTAL RUN TIME: 0 days 0 hours 0 minutes 7 seconds 216 msec
