                         Program Version 3.0.3 - RELEASE   -
|  1> ! RI PBE def2-SVP def2-SVP/J NBO PAL2
|  2> % maxcore 2000
|  3> % output
|  4>     # printlevel mini
|  5>     print[ P_Basis ] 0
|  6>     print[ P_SCFInfo ] 1
|  7>     print[ P_SCFIterInfo ] 1
|  8>     print[ P_OrbEn ] 0
|  9>     print[ P_Cartesian ] 0
| 10> end
| 11> *xyz 0 1
| 12>  O        1.1700790000    -0.1694630000    -0.8986950000
| 13>  C        2.1869350000     0.0808380000    -0.3641100000
| 14>  C        3.3173070000    -0.6290040000     0.4872660000
| 15>  N        3.3365570000     0.6658200000     1.2052130000
| 16>  C        3.1594070000     1.3057090000    -0.1182530000
| 17>  C        4.2949380000     0.7741570000    -0.9573620000
| 18>  C        4.3994380000    -0.5058210000    -0.5567180000
| 19>  H        3.1768940000    -1.5462630000     1.0520510000
| 20>  H        4.2648760000     0.8603250000     1.5846090000
| 21>  H        2.8590210000     2.3485230000    -0.1669260000
| 22>  H        4.7831510000     1.2741620000    -1.7814790000
| 23>  H        4.9937880000    -1.3059740000    -0.9738850000
| 24> *
| 25>
| 26>                          ****END OF INPUT****
 Total Charge           Charge          ....    0
 Multiplicity           Mult            ....    1
 Number of Electrons    NEL             ....   50
 Basis Dimension        Dim             ....  123

MULLIKEN ATOMIC CHARGES
-----------------------
   0 O :   -0.076027
   1 C :    0.108628
   2 C :   -0.032939
   3 N :   -0.116264
   4 C :   -0.035045
   5 C :    0.022576
   6 C :    0.025347
   7 H :    0.006743
   8 H :    0.086050
   9 H :    0.006960
  10 H :    0.002207
  11 H :    0.001764
Sum of atomic charges:   -0.0000000

LOEWDIN ATOMIC CHARGES
----------------------
   0 O :   -0.065401
   1 C :    0.082898
   2 C :   -0.007122
   3 N :   -0.070141
   4 C :   -0.007288
   5 C :   -0.036003
   6 C :   -0.035054
   7 H :    0.018127
   8 H :    0.048259
   9 H :    0.018220
  10 H :    0.026790
  11 H :    0.026715

  Mayer bond orders larger than 0.1
B(  0-O ,  1-C ) :   2.3117 B(  1-C ,  2-C ) :   0.7668 B(  1-C ,  4-C ) :   0.7654
B(  2-C ,  3-N ) :   0.9790 B(  2-C ,  6-C ) :   0.9211 B(  2-C ,  7-H ) :   0.9878
B(  3-N ,  4-C ) :   0.9800 B(  3-N ,  8-H ) :   0.9085 B(  4-C ,  5-C ) :   0.9191
B(  4-C ,  9-H ) :   0.9894 B(  5-C ,  6-C ) :   1.6390 B(  5-C , 10-H ) :   1.0198
B(  6-C , 11-H ) :   1.0191

FINAL SINGLE POINT ENERGY      -322.798860107367

DIPOLE MOMENT
-------------
                                X             Y             Z
Electronic contribution:     -3.24449      -0.42889      -0.52216
Nuclear contribution   :      4.29880       0.51158       0.51361
                        -----------------------------------------
Total Dipole Moment    :      1.05431       0.08269      -0.00855
                        -----------------------------------------
Magnitude (a.u.)       :      1.05759
Magnitude (Debye)      :      2.68817

                             ****ORCA TERMINATED NORMALLY****
TOTAL RUN TIME: 0 days 0 hours 0 minutes 5 seconds 989 msec
