                         Program Version 3.0.3 - RELEASE   -
|  1> ! RI PBE def2-SVP def2-SVP/J NBO PAL2
|  2> % maxcore 2000
|  3> % output
|  4>     # printlevel mini
|  5>     print[ P_Basis ] 0
|  6>     print[ P_SCFInfo ] 1
|  7>     print[ P_SCFIterInfo ] 1
|  8>     print[ P_OrbEn ] 0
|  9>     print[ P_Cartesian ] 0
| 10> end
| 11> *xyz 0 1
| 12>  O        0.9500360000    -0.1923200000    -0.4097330000
| 13>  C        2.2189140000     0.1721460000     0.0166550000
| 14>  C        3.4998050000    -0.5422710000    -0.5402920000
| 15>  N        4.1725430000     0.7377810000    -0.1826510000
| 16>  C        2.9209660000     1.3449610000    -0.7188190000
| 17>  C        2.8712400000     0.8487090000    -2.1666020000
| 18>  C        3.2629400000    -0.4178370000    -2.0448550000
| 19>  H        0.5097390000    -0.6613690000     0.3012480000
| 20>  H        2.2771150000     0.2914430000     1.1018920000
| 21>  H        3.8983470000    -1.4687470000    -0.1283790000
| 22>  H        4.9613080000     0.9213690000    -0.7993790000
| 23>  H        2.7133320000     2.3910680000    -0.4981620000
| 24>  H        2.5365880000     1.3960360000    -3.0354610000
| 25>  H        3.3351260000    -1.1987590000    -2.7876630000
| 26> *
| 27>
| 28>                          ****END OF INPUT****
 Total Charge           Charge          ....    0
 Multiplicity           Mult            ....    1
 Number of Electrons    NEL             ....   52
 Basis Dimension        Dim             ....  133

MULLIKEN ATOMIC CHARGES
-----------------------
   0 O :   -0.197156
   1 C :    0.102535
   2 C :   -0.006931
   3 N :   -0.152204
   4 C :   -0.008790
   5 C :    0.037885
   6 C :    0.029251
   7 H :    0.160752
   8 H :    0.016928
   9 H :   -0.018273
  10 H :    0.078437
  11 H :   -0.012445
  12 H :   -0.015214
  13 H :   -0.014774
Sum of atomic charges:   -0.0000000

LOEWDIN ATOMIC CHARGES
----------------------
   0 O :   -0.091323
   1 C :    0.048612
   2 C :    0.001389
   3 N :   -0.085737
   4 C :    0.012670
   5 C :   -0.031810
   6 C :   -0.033512
   7 H :    0.077224
   8 H :    0.010869
   9 H :    0.004214
  10 H :    0.038982
  11 H :    0.007518
  12 H :    0.020668
  13 H :    0.020235

  Mayer bond orders larger than 0.1
B(  0-O ,  1-C ) :   1.2047 B(  0-O ,  7-H ) :   0.9754 B(  1-C ,  2-C ) :   0.8878
B(  1-C ,  4-C ) :   0.9257 B(  1-C ,  8-H ) :   0.9394 B(  2-C ,  3-N ) :   0.9898
B(  2-C ,  6-C ) :   0.8998 B(  2-C ,  9-H ) :   0.9652 B(  3-N ,  4-C ) :   0.9908
B(  3-N , 10-H ) :   0.9319 B(  4-C ,  5-C ) :   0.9037 B(  4-C , 11-H ) :   0.9662
B(  5-C ,  6-C ) :   1.7694 B(  5-C , 12-H ) :   1.0191 B(  6-C , 13-H ) :   1.0190

FINAL SINGLE POINT ENERGY      -323.982380191976

DIPOLE MOMENT
-------------
                                X             Y             Z
Electronic contribution:     -0.79831      -0.09804       0.14566
Nuclear contribution   :      0.60261      -0.18282      -0.03027
                        -----------------------------------------
Total Dipole Moment    :     -0.19570      -0.28086       0.11540
                        -----------------------------------------
Magnitude (a.u.)       :      0.36124
Magnitude (Debye)      :      0.91821

                             ****ORCA TERMINATED NORMALLY****
TOTAL RUN TIME: 0 days 0 hours 0 minutes 6 seconds 629 msec
