                         Program Version 3.0.3 - RELEASE   -
|  1> ! RI PBE def2-SVP def2-SVP/J NBO PAL2
|  2> % maxcore 2000
|  3> % output
|  4>     # printlevel mini
|  5>     print[ P_Basis ] 0
|  6>     print[ P_SCFInfo ] 1
|  7>     print[ P_SCFIterInfo ] 1
|  8>     print[ P_OrbEn ] 0
|  9>     print[ P_Cartesian ] 0
| 10> end
| 11> *xyz 0 1
| 12>  O        1.4405660000     0.0413590000     1.0109780000
| 13>  C        2.5850610000     0.1347660000     0.2304610000
| 14>  C        2.4495070000     0.8163360000    -1.1030170000
| 15>  N        3.6556000000     1.1559370000    -1.7900230000
| 16>  C        4.3933980000     0.0037620000    -1.9139370000
| 17>  N        3.8205310000    -1.0844720000    -1.5710620000
| 18>  C        2.5577570000    -0.7054520000    -1.0040330000
| 19>  H        1.2348440000     0.9142410000     1.3578670000
| 20>  H        3.5337900000     0.2161730000     0.7607340000
| 21>  H        1.5408560000     1.3495260000    -1.3574050000
| 22>  H        4.0923740000     2.0569090000    -1.6957970000
| 23>  H        5.3925510000     0.0489810000    -2.3346690000
| 24>  H        1.7135870000    -1.3696660000    -1.1380870000
| 25> *
| 26>
| 27>                          ****END OF INPUT****
 Total Charge           Charge          ....    0
 Multiplicity           Mult            ....    1
 Number of Electrons    NEL             ....   52
 Basis Dimension        Dim             ....  128

MULLIKEN ATOMIC CHARGES
-----------------------
   0 O :   -0.231290
   1 C :    0.119064
   2 C :   -0.026737
   3 N :   -0.121489
   4 C :    0.081183
   5 N :   -0.152758
   6 C :   -0.007996
   7 H :    0.161135
   8 H :    0.005821
   9 H :    0.014961
  10 H :    0.116844
  11 H :    0.010800
  12 H :    0.030462
Sum of atomic charges:   -0.0000000

LOEWDIN ATOMIC CHARGES
----------------------
   0 O :   -0.088511
   1 C :    0.016290
   2 C :   -0.026782
   3 N :   -0.004831
   4 C :    0.024795
   5 N :   -0.135420
   6 C :   -0.002167
   7 H :    0.075516
   8 H :    0.005951
   9 H :    0.018214
  10 H :    0.073228
  11 H :    0.017284
  12 H :    0.026433

  Mayer bond orders larger than 0.1
B(  0-O ,  1-C ) :   1.1328 B(  0-O ,  7-H ) :   0.9783 B(  1-C ,  2-C ) :   0.9130
B(  1-C ,  6-C ) :   0.8971 B(  1-C ,  8-H ) :   0.9202 B(  2-C ,  3-N ) :   1.0258
B(  2-C ,  6-C ) :   0.8833 B(  2-C ,  9-H ) :   0.9440 B(  3-N ,  4-C ) :   1.1495
B(  3-N ,  5-N ) :   0.1148 B(  3-N , 10-H ) :   0.9394 B(  4-C ,  5-N ) :   1.7995
B(  4-C , 11-H ) :   0.9590 B(  5-N ,  6-C ) :   1.1061 B(  6-C , 12-H ) :   0.9458

FINAL SINGLE POINT ENERGY      -340.051369365978

DIPOLE MOMENT
-------------
                                X             Y             Z
Electronic contribution:      0.29495      -0.90005      -0.39088
Nuclear contribution   :     -0.19173       2.56295       0.52326
                        -----------------------------------------
Total Dipole Moment    :      0.10321       1.66291       0.13237
                        -----------------------------------------
Magnitude (a.u.)       :      1.67136
Magnitude (Debye)      :      4.24825

                             ****ORCA TERMINATED NORMALLY****
TOTAL RUN TIME: 0 days 0 hours 0 minutes 6 seconds 470 msec
