                         Program Version 3.0.3 - RELEASE   -
|  1> ! RI PBE def2-SVP def2-SVP/J NBO PAL2
|  2> % maxcore 2000
|  3> % output
|  4>     # printlevel mini
|  5>     print[ P_Basis ] 0
|  6>     print[ P_SCFInfo ] 1
|  7>     print[ P_SCFIterInfo ] 1
|  8>     print[ P_OrbEn ] 0
|  9>     print[ P_Cartesian ] 0
| 10> end
| 11> *xyz 0 1
| 12>  O        1.3095450000    -0.0490090000     0.8392570000
| 13>  C        2.5118050000    -0.0023470000     0.1444770000
| 14>  C        2.5031460000     0.6835090000    -1.1878500000
| 15>  N        3.7432780000     1.0197730000    -1.8219410000
| 16>  N        4.5595570000    -0.0812730000    -1.9168090000
| 17>  C        3.8850070000    -1.1256220000    -1.6171590000
| 18>  C        2.5294540000    -0.8327740000    -1.1049790000
| 19>  H        1.1169550000     0.8308000000     1.1763120000
| 20>  H        3.4164280000     0.0237590000     0.7496310000
| 21>  H        1.6210710000     1.2393640000    -1.4855980000
| 22>  H        4.2408410000     1.8442910000    -1.5231040000
| 23>  H        4.3170210000    -2.1093450000    -1.7446610000
| 24>  H        1.6722830000    -1.4608160000    -1.3103760000
| 25> *
| 26>
| 27>                          ****END OF INPUT****
 Total Charge           Charge          ....    0
 Multiplicity           Mult            ....    1
 Number of Electrons    NEL             ....   52
 Basis Dimension        Dim             ....  128

MULLIKEN ATOMIC CHARGES
-----------------------
   0 O :   -0.233579
   1 C :    0.116867
   2 C :    0.003951
   3 N :   -0.075017
   4 N :   -0.108759
   5 C :    0.037131
   6 C :   -0.102081
   7 H :    0.162419
   8 H :    0.011093
   9 H :    0.019068
  10 H :    0.122729
  11 H :    0.010254
  12 H :    0.035925
Sum of atomic charges:    0.0000000

LOEWDIN ATOMIC CHARGES
----------------------
   0 O :   -0.090519
   1 C :    0.024995
   2 C :   -0.022389
   3 N :    0.007596
   4 N :   -0.044706
   5 C :   -0.046700
   6 C :   -0.056464
   7 H :    0.076732
   8 H :    0.007435
   9 H :    0.022400
  10 H :    0.064701
  11 H :    0.021878
  12 H :    0.035042

  Mayer bond orders larger than 0.1
B(  0-O ,  1-C ) :   1.1287 B(  0-O ,  7-H ) :   0.9790 B(  1-C ,  2-C ) :   0.9161
B(  1-C ,  6-C ) :   0.9087 B(  1-C ,  8-H ) :   0.9316 B(  2-C ,  3-N ) :   1.0270
B(  2-C ,  6-C ) :   0.9037 B(  2-C ,  9-H ) :   0.9421 B(  3-N ,  4-N ) :   1.1003
B(  3-N ,  5-C ) :   0.1009 B(  3-N , 10-H ) :   0.9401 B(  4-N ,  5-C ) :   1.8199
B(  5-C ,  6-C ) :   0.9939 B(  5-C , 11-H ) :   0.9874 B(  6-C , 12-H ) :   0.9393

FINAL SINGLE POINT ENERGY      -340.026191358804

DIPOLE MOMENT
-------------
                                X             Y             Z
Electronic contribution:      0.90972       0.16510      -0.70175
Nuclear contribution   :     -1.33928       0.50009       1.20183
                        -----------------------------------------
Total Dipole Moment    :     -0.42957       0.66519       0.50008
                        -----------------------------------------
Magnitude (a.u.)       :      0.93653
Magnitude (Debye)      :      2.38047

                             ****ORCA TERMINATED NORMALLY****
TOTAL RUN TIME: 0 days 0 hours 0 minutes 6 seconds 703 msec
