                         Program Version 3.0.3 - RELEASE   -
|  1> ! RI PBE def2-SVP def2-SVP/J NBO PAL2
|  2> % maxcore 2000
|  3> % output
|  4>     # printlevel mini
|  5>     print[ P_Basis ] 0
|  6>     print[ P_SCFInfo ] 1
|  7>     print[ P_SCFIterInfo ] 1
|  8>     print[ P_OrbEn ] 0
|  9>     print[ P_Cartesian ] 0
| 10> end
| 11> *xyz 0 1
| 12>  O        1.2588580000    -0.0850690000     0.8292970000
| 13>  C        2.4992130000    -0.0775320000     0.2082860000
| 14>  C        2.6127520000     0.6630990000    -1.0779980000
| 15>  O        3.8995940000     1.0129670000    -1.5174080000
| 16>  N        4.6303990000    -0.1399020000    -1.7576550000
| 17>  C        3.8907930000    -1.1586450000    -1.5568150000
| 18>  C        2.5345710000    -0.8452900000    -1.0872130000
| 19>  H        1.1194760000     0.7719520000     1.2432410000
| 20>  H        3.3717100000    -0.1358660000     0.8558650000
| 21>  H        1.8273730000     1.3282480000    -1.4151590000
| 22>  H        4.2976200000    -2.1432660000    -1.7456850000
| 23>  H        1.6663520000    -1.4223760000    -1.3773660000
| 24> *
| 25>
| 26>                          ****END OF INPUT****
 Total Charge           Charge          ....    0
 Multiplicity           Mult            ....    1
 Number of Electrons    NEL             ....   52
 Basis Dimension        Dim             ....  123

MULLIKEN ATOMIC CHARGES
-----------------------
   0 O :   -0.232882
   1 C :    0.100369
   2 C :    0.127359
   3 O :   -0.225636
   4 N :    0.011150
   5 C :    0.028356
   6 C :   -0.110096
   7 H :    0.168622
   8 H :    0.029059
   9 H :    0.033251
  10 H :    0.027539
  11 H :    0.042907
Sum of atomic charges:   -0.0000000

LOEWDIN ATOMIC CHARGES
----------------------
   0 O :   -0.086659
   1 C :    0.028607
   2 C :    0.025281
   3 O :   -0.063458
   4 N :    0.006354
   5 C :   -0.038979
   6 C :   -0.065459
   7 H :    0.081122
   8 H :    0.014421
   9 H :    0.025851
  10 H :    0.033671
  11 H :    0.039248

  Mayer bond orders larger than 0.1
B(  0-O ,  1-C ) :   1.1335 B(  0-O ,  7-H ) :   0.9767 B(  1-C ,  2-C ) :   0.9202
B(  1-C ,  6-C ) :   0.8976 B(  1-C ,  8-H ) :   0.9278 B(  2-C ,  3-O ) :   0.9926
B(  2-C ,  6-C ) :   0.9058 B(  2-C ,  9-H ) :   0.9438 B(  3-O ,  4-N ) :   0.9827
B(  3-O ,  5-C ) :   0.1000 B(  4-N ,  5-C ) :   1.8459 B(  5-C ,  6-C ) :   0.9969
B(  5-C , 10-H ) :   0.9788 B(  6-C , 11-H ) :   0.9441

FINAL SINGLE POINT ENERGY      -359.844932449270

DIPOLE MOMENT
-------------
                                X             Y             Z
Electronic contribution:      1.77897       1.12103      -1.10281
Nuclear contribution   :     -2.60429      -1.21443       1.52123
                        -----------------------------------------
Total Dipole Moment    :     -0.82532      -0.09340       0.41842
                        -----------------------------------------
Magnitude (a.u.)       :      0.93002
Magnitude (Debye)      :      2.36393

                             ****ORCA TERMINATED NORMALLY****
TOTAL RUN TIME: 0 days 0 hours 0 minutes 5 seconds 709 msec
