                         Program Version 3.0.3 - RELEASE   -
|  1> ! RI PBE def2-SVP def2-SVP/J NBO PAL2
|  2> % maxcore 2000
|  3> % output
|  4>     # printlevel mini
|  5>     print[ P_Basis ] 0
|  6>     print[ P_SCFInfo ] 1
|  7>     print[ P_SCFIterInfo ] 1
|  8>     print[ P_OrbEn ] 0
|  9>     print[ P_Cartesian ] 0
| 10> end
| 11> *xyz 0 1
| 12>  O        1.0262760000    -0.1176820000     0.2767120000
| 13>  C        2.3895830000    -0.2180720000     0.0140930000
| 14>  C        2.8549450000    -0.4653860000    -1.3865280000
| 15>  C        2.9943670000     0.9000990000    -0.7600230000
| 16>  C        4.3315040000     1.4369860000    -0.4023440000
| 17>  C        4.8111500000     2.6959870000    -1.0031730000
| 18>  N        4.4449190000     2.6433400000     0.4108460000
| 19>  H        0.6480500000    -1.0008340000     0.2480300000
| 20>  H        2.9861000000    -0.6381500000     0.8221640000
| 21>  H        2.0933650000    -0.5822250000    -2.1474800000
| 22>  H        3.7525450000    -1.0545120000    -1.5355050000
| 23>  H        2.2748580000     1.6383400000    -1.1044640000
| 24>  H        5.0718380000     0.6801270000    -0.1511520000
| 25>  H        4.1442520000     3.2006980000    -1.6961060000
| 26>  H        5.8676670000     2.8444780000    -1.1990380000
| 27>  H        3.5252700000     3.0491060000     0.5523600000
| 28> *
| 29>
| 30>                          ****END OF INPUT****
 Total Charge           Charge          ....    0
 Multiplicity           Mult            ....    1
 Number of Electrons    NEL             ....   54
 Basis Dimension        Dim             ....  143

MULLIKEN ATOMIC CHARGES
-----------------------
   0 O :   -0.233901
   1 C :    0.056099
   2 C :   -0.009991
   3 C :   -0.044215
   4 C :   -0.036552
   5 C :    0.047620
   6 N :   -0.182357
   7 H :    0.161691
   8 H :    0.015347
   9 H :    0.026525
  10 H :    0.027717
  11 H :    0.002563
  12 H :    0.005763
  13 H :    0.025931
  14 H :    0.031538
  15 H :    0.106220
Sum of atomic charges:   -0.0000000

LOEWDIN ATOMIC CHARGES
----------------------
   0 O :   -0.098499
   1 C :    0.034778
   2 C :   -0.060355
   3 C :   -0.055411
   4 C :   -0.001806
   5 C :    0.000862
   6 N :   -0.101554
   7 H :    0.075076
   8 H :    0.009979
   9 H :    0.029997
  10 H :    0.027144
  11 H :    0.031159
  12 H :    0.020875
  13 H :    0.014631
  14 H :    0.020264
  15 H :    0.052860

  Mayer bond orders larger than 0.1
B(  0-O ,  1-C ) :   1.1489 B(  0-O ,  7-H ) :   0.9793 B(  1-C ,  2-C ) :   1.0011
B(  1-C ,  3-C ) :   0.9096 B(  1-C ,  8-H ) :   0.9399 B(  2-C ,  3-C ) :   0.9644
B(  2-C ,  9-H ) :   0.9249 B(  2-C , 10-H ) :   0.9350 B(  3-C ,  4-C ) :   1.0757
B(  3-C , 11-H ) :   0.9147 B(  4-C ,  5-C ) :   1.0430 B(  4-C ,  6-N ) :   0.9977
B(  4-C , 12-H ) :   0.9191 B(  5-C ,  6-N ) :   1.0092 B(  5-C , 13-H ) :   0.9412
B(  5-C , 14-H ) :   0.9370 B(  6-N , 15-H ) :   0.9496

FINAL SINGLE POINT ENERGY      -325.195847475701

DIPOLE MOMENT
-------------
                                X             Y             Z
Electronic contribution:     -1.70365      -0.09535       2.01715
Nuclear contribution   :      1.37106      -0.51442      -2.52745
                        -----------------------------------------
Total Dipole Moment    :     -0.33258      -0.60977      -0.51030
                        -----------------------------------------
Magnitude (a.u.)       :      0.86188
Magnitude (Debye)      :      2.19072

                             ****ORCA TERMINATED NORMALLY****
TOTAL RUN TIME: 0 days 0 hours 0 minutes 6 seconds 878 msec
