                         Program Version 3.0.3 - RELEASE   -
|  1> ! RI PBE def2-SVP def2-SVP/J NBO PAL2
|  2> % maxcore 2000
|  3> % output
|  4>     # printlevel mini
|  5>     print[ P_Basis ] 0
|  6>     print[ P_SCFInfo ] 1
|  7>     print[ P_SCFIterInfo ] 1
|  8>     print[ P_OrbEn ] 0
|  9>     print[ P_Cartesian ] 0
| 10> end
| 11> *xyz 0 1
| 12>  O        0.9245790000     0.4720280000    -0.2514720000
| 13>  C        2.2719620000     0.1901100000     0.0014570000
| 14>  C        3.0274390000    -0.5903650000    -1.0283880000
| 15>  C        3.2602870000     0.8892230000    -0.8690410000
| 16>  C        2.6058030000     0.0056190000     1.4471610000
| 17>  C        1.9007650000     0.7820380000     2.4801480000
| 18>  N        1.6759760000    -0.6602770000     2.3484250000
| 19>  H        0.4855780000    -0.3471470000    -0.4938380000
| 20>  H        2.4835760000    -0.9112160000    -1.9092400000
| 21>  H        3.7933080000    -1.2773230000    -0.6891820000
| 22>  H        2.8497710000     1.5401800000    -1.6298640000
| 23>  H        4.1908370000     1.2224430000    -0.4258930000
| 24>  H        3.6464720000    -0.2569980000     1.6207750000
| 25>  H        1.1149290000     1.4485910000     2.1419120000
| 26>  H        2.4211620000     1.0867580000     3.3814170000
| 27>  H        0.7912570000    -0.8012620000     1.8698130000
| 28> *
| 29>
| 30>                          ****END OF INPUT****
 Total Charge           Charge          ....    0
 Multiplicity           Mult            ....    1
 Number of Electrons    NEL             ....   54
 Basis Dimension        Dim             ....  143

MULLIKEN ATOMIC CHARGES
-----------------------
   0 O :   -0.238493
   1 C :   -0.014504
   2 C :   -0.054301
   3 C :   -0.003664
   4 C :   -0.014786
   5 C :    0.056928
   6 N :   -0.186806
   7 H :    0.165539
   8 H :    0.032189
   9 H :    0.037653
  10 H :    0.040729
  11 H :    0.034330
  12 H :   -0.002034
  13 H :    0.034461
  14 H :    0.030806
  15 H :    0.081954
Sum of atomic charges:   -0.0000000

LOEWDIN ATOMIC CHARGES
----------------------
   0 O :   -0.081350
   1 C :    0.000850
   2 C :   -0.055906
   3 C :   -0.041109
   4 C :   -0.014027
   5 C :    0.001996
   6 N :   -0.102953
   7 H :    0.073610
   8 H :    0.028283
   9 H :    0.029606
  10 H :    0.033925
  11 H :    0.028759
  12 H :    0.022608
  13 H :    0.017406
  14 H :    0.019100
  15 H :    0.039202

  Mayer bond orders larger than 0.1
B(  0-O ,  1-C ) :   1.0779 B(  0-O ,  7-H ) :   0.9765 B(  1-C ,  2-C ) :   0.9820
B(  1-C ,  3-C ) :   0.9512 B(  1-C ,  4-C ) :   0.9920 B(  2-C ,  3-C ) :   1.0275
B(  2-C ,  8-H ) :   0.9381 B(  2-C ,  9-H ) :   0.9386 B(  3-C , 10-H ) :   0.9334
B(  3-C , 11-H ) :   0.9471 B(  4-C ,  5-C ) :   1.0456 B(  4-C ,  6-N ) :   1.0157
B(  4-C , 12-H ) :   0.9132 B(  5-C ,  6-N ) :   0.9933 B(  5-C , 13-H ) :   0.9348
B(  5-C , 14-H ) :   0.9397 B(  6-N , 15-H ) :   0.9404

FINAL SINGLE POINT ENERGY      -325.199501793175

DIPOLE MOMENT
-------------
                                X             Y             Z
Electronic contribution:     -1.96529      -0.39871       0.60173
Nuclear contribution   :      1.91275       0.29105      -1.24470
                        -----------------------------------------
Total Dipole Moment    :     -0.05254      -0.10766      -0.64297
                        -----------------------------------------
Magnitude (a.u.)       :      0.65403
Magnitude (Debye)      :      1.66241

                             ****ORCA TERMINATED NORMALLY****
TOTAL RUN TIME: 0 days 0 hours 0 minutes 7 seconds 238 msec
