                         Program Version 3.0.3 - RELEASE   -
|  1> ! RI PBE def2-SVP def2-SVP/J NBO PAL2
|  2> % maxcore 2000
|  3> % output
|  4>     # printlevel mini
|  5>     print[ P_Basis ] 0
|  6>     print[ P_SCFInfo ] 1
|  7>     print[ P_SCFIterInfo ] 1
|  8>     print[ P_OrbEn ] 0
|  9>     print[ P_Cartesian ] 0
| 10> end
| 11> *xyz 0 1
| 12>  O        0.7379030000     0.6039470000    -0.3615220000
| 13>  C        2.0679740000     0.5047700000     0.0227240000
| 14>  C        2.9178250000    -0.5998630000    -0.5310630000
| 15>  C        3.0748140000     0.8131300000    -1.0238990000
| 16>  C        4.3269620000     1.5841820000    -0.6853190000
| 17>  C        4.1318530000     3.0278240000    -0.7228050000
| 18>  N        3.9747340000     4.1658850000    -0.7576220000
| 19>  H        0.2343670000    -0.0654120000     0.1099130000
| 20>  H        2.2851520000     0.8439670000     1.0345990000
| 21>  H        2.4385380000    -1.3026210000    -1.2009450000
| 22>  H        3.6952150000    -1.0190020000     0.0977450000
| 23>  H        2.6549790000     1.0192460000    -2.0019430000
| 24>  H        5.1332250000     1.3308710000    -1.3811030000
| 25>  H        4.6813600000     1.3150770000     0.3145410000
| 26> *
| 27>
| 28>                          ****END OF INPUT****
 Total Charge           Charge          ....    0
 Multiplicity           Mult            ....    1
 Number of Electrons    NEL             ....   52
 Basis Dimension        Dim             ....  133

MULLIKEN ATOMIC CHARGES
-----------------------
   0 O :   -0.227074
   1 C :    0.066689
   2 C :    0.000621
   3 C :   -0.155279
   4 C :    0.150661
   5 C :   -0.270609
   6 N :    0.055017
   7 H :    0.164556
   8 H :    0.013062
   9 H :    0.035446
  10 H :    0.028118
  11 H :    0.047903
  12 H :    0.058099
  13 H :    0.032790
Sum of atomic charges:   -0.0000000

LOEWDIN ATOMIC CHARGES
----------------------
   0 O :   -0.090902
   1 C :    0.038272
   2 C :   -0.060357
   3 C :   -0.038850
   4 C :   -0.047049
   5 C :   -0.042524
   6 N :   -0.064535
   7 H :    0.077740
   8 H :    0.010128
   9 H :    0.033624
  10 H :    0.027394
  11 H :    0.040066
  12 H :    0.061038
  13 H :    0.055957

  Mayer bond orders larger than 0.1
B(  0-O ,  1-C ) :   1.1528 B(  0-O ,  7-H ) :   0.9784 B(  1-C ,  2-C ) :   0.9981
B(  1-C ,  3-C ) :   0.9308 B(  1-C ,  8-H ) :   0.9399 B(  2-C ,  3-C ) :   0.9892
B(  2-C ,  9-H ) :   0.9286 B(  2-C , 10-H ) :   0.9289 B(  3-C ,  4-C ) :   1.0690
B(  3-C , 11-H ) :   0.9377 B(  4-C ,  5-C ) :   1.1156 B(  4-C , 12-H ) :   0.8842
B(  4-C , 13-H ) :   0.8822 B(  5-C ,  6-N ) :   3.0600

FINAL SINGLE POINT ENERGY      -324.023443053280

DIPOLE MOMENT
-------------
                                X             Y             Z
Electronic contribution:     -0.25221       5.19363      -0.46416
Nuclear contribution   :      0.36964      -7.07823       0.86514
                        -----------------------------------------
Total Dipole Moment    :      0.11743      -1.88460       0.40098
                        -----------------------------------------
Magnitude (a.u.)       :      1.93036
Magnitude (Debye)      :      4.90657

                             ****ORCA TERMINATED NORMALLY****
TOTAL RUN TIME: 0 days 0 hours 0 minutes 6 seconds 394 msec
