                         Program Version 3.0.3 - RELEASE   -
|  1> ! RI PBE def2-SVP def2-SVP/J NBO PAL2
|  2> % maxcore 2000
|  3> % output
|  4>     # printlevel mini
|  5>     print[ P_Basis ] 0
|  6>     print[ P_SCFInfo ] 1
|  7>     print[ P_SCFIterInfo ] 1
|  8>     print[ P_OrbEn ] 0
|  9>     print[ P_Cartesian ] 0
| 10> end
| 11> *xyz 0 1
| 12>  O        1.1088550000    -0.3057390000     0.2829690000
| 13>  C        2.4786200000    -0.3752200000     0.0447790000
| 14>  C        2.9831390000    -0.5125330000    -1.3618990000
| 15>  C        3.0928740000     0.7952190000    -0.6299300000
| 16>  N        4.3877410000     1.2133010000    -0.2000650000
| 17>  C        4.9581900000     2.3445970000    -0.9033410000
| 18>  C        4.4522130000     2.4914740000     0.4797820000
| 19>  H        0.7373190000    -1.1822620000     0.1520450000
| 20>  H        3.0722970000    -0.8388030000     0.8289680000
| 21>  H        2.2445210000    -0.5750970000    -2.1515610000
| 22>  H        3.8963780000    -1.0725830000    -1.5190160000
| 23>  H        2.3897070000     1.5734640000    -0.9349870000
| 24>  H        4.3677340000     2.7940540000    -1.6978260000
| 25>  H        6.0243470000     2.2935200000    -1.0959340000
| 26>  H        3.5225490000     3.0384430000     0.6138150000
| 27>  H        5.1429250000     2.5480740000     1.3139820000
| 28> *
| 29>
| 30>                          ****END OF INPUT****
 Total Charge           Charge          ....    0
 Multiplicity           Mult            ....    1
 Number of Electrons    NEL             ....   54
 Basis Dimension        Dim             ....  143

MULLIKEN ATOMIC CHARGES
-----------------------
   0 O :   -0.235137
   1 C :    0.060478
   2 C :    0.003803
   3 C :   -0.030173
   4 N :   -0.235011
   5 C :    0.034946
   6 C :    0.036082
   7 H :    0.160722
   8 H :    0.013533
   9 H :    0.025745
  10 H :    0.029140
  11 H :    0.005900
  12 H :    0.025894
  13 H :    0.037023
  14 H :    0.029297
  15 H :    0.037757
Sum of atomic charges:    0.0000000

LOEWDIN ATOMIC CHARGES
----------------------
   0 O :   -0.099423
   1 C :    0.030494
   2 C :   -0.066530
   3 C :   -0.009551
   4 N :   -0.096786
   5 C :    0.005179
   6 C :    0.006322
   7 H :    0.074217
   8 H :    0.011561
   9 H :    0.028459
  10 H :    0.031218
  11 H :    0.010766
  12 H :    0.015096
  13 H :    0.021084
  14 H :    0.016275
  15 H :    0.021619

  Mayer bond orders larger than 0.1
B(  0-O ,  1-C ) :   1.1469 B(  0-O ,  7-H ) :   0.9796 B(  1-C ,  2-C ) :   1.0205
B(  1-C ,  3-C ) :   0.9247 B(  1-C ,  8-H ) :   0.9290 B(  2-C ,  3-C ) :   0.9851
B(  2-C ,  9-H ) :   0.9285 B(  2-C , 10-H ) :   0.9202 B(  3-C ,  4-N ) :   1.0897
B(  3-C , 11-H ) :   0.9110 B(  4-N ,  5-C ) :   0.9603 B(  4-N ,  6-C ) :   0.9580
B(  5-C ,  6-C ) :   1.1000 B(  5-C , 12-H ) :   0.9307 B(  5-C , 13-H ) :   0.9498
B(  6-C , 14-H ) :   0.9314 B(  6-C , 15-H ) :   0.9493

FINAL SINGLE POINT ENERGY      -325.189018915672

DIPOLE MOMENT
-------------
                                X             Y             Z
Electronic contribution:     -1.66793      -1.55395       1.29117
Nuclear contribution   :      1.61013       1.41449      -1.53959
                        -----------------------------------------
Total Dipole Moment    :     -0.05780      -0.13946      -0.24842
                        -----------------------------------------
Magnitude (a.u.)       :      0.29069
Magnitude (Debye)      :      0.73888

                             ****ORCA TERMINATED NORMALLY****
TOTAL RUN TIME: 0 days 0 hours 0 minutes 7 seconds 113 msec
