                         Program Version 3.0.3 - RELEASE   -
|  1> ! RI PBE def2-SVP def2-SVP/J NBO PAL2
|  2> % maxcore 2000
|  3> % output
|  4>     # printlevel mini
|  5>     print[ P_Basis ] 0
|  6>     print[ P_SCFInfo ] 1
|  7>     print[ P_SCFIterInfo ] 1
|  8>     print[ P_OrbEn ] 0
|  9>     print[ P_Cartesian ] 0
| 10> end
| 11> *xyz 0 1
| 12>  O        0.8102960000     0.4471610000    -0.3307860000
| 13>  C        2.0264760000    -0.2075730000    -0.1920510000
| 14>  C        2.6971200000    -0.7930970000    -1.3952960000
| 15>  C        3.2065230000     0.4834540000    -0.7882040000
| 16>  N        4.4424320000     0.4554140000    -0.0935450000
| 17>  C        4.6991250000     1.3065360000     0.9520080000
| 18>  N        3.8993650000     2.0782240000     1.5618810000
| 19>  H        0.1180040000    -0.2112440000    -0.4343000000
| 20>  H        2.1954800000    -0.7027190000     0.7610470000
| 21>  H        2.1833080000    -0.7061270000    -2.3442080000
| 22>  H        3.2883030000    -1.6907240000    -1.2606350000
| 23>  H        2.9651440000     1.3964910000    -1.3307170000
| 24>  H        5.2402450000     0.0938500000    -0.5889230000
| 25>  H        5.7387650000     1.2583720000     1.2840990000
| 26>  H        2.9610130000     2.0393700000     1.1644290000
| 27> *
| 28>
| 29>                          ****END OF INPUT****
 Total Charge           Charge          ....    0
 Multiplicity           Mult            ....    1
 Number of Electrons    NEL             ....   54
 Basis Dimension        Dim             ....  138

MULLIKEN ATOMIC CHARGES
-----------------------
   0 O :   -0.232267
   1 C :    0.072459
   2 C :   -0.003224
   3 C :   -0.080194
   4 N :   -0.091291
   5 C :   -0.011509
   6 N :   -0.156690
   7 H :    0.165097
   8 H :    0.026306
   9 H :    0.033051
  10 H :    0.031035
  11 H :    0.042294
  12 H :    0.115298
  13 H :    0.002012
  14 H :    0.087623
Sum of atomic charges:   -0.0000000

LOEWDIN ATOMIC CHARGES
----------------------
   0 O :   -0.093036
   1 C :    0.029145
   2 C :   -0.059638
   3 C :   -0.011103
   4 N :   -0.016862
   5 C :    0.011614
   6 N :   -0.163527
   7 H :    0.078354
   8 H :    0.014992
   9 H :    0.033310
  10 H :    0.029964
  11 H :    0.021958
  12 H :    0.071758
  13 H :    0.010660
  14 H :    0.042412

  Mayer bond orders larger than 0.1
B(  0-O ,  1-C ) :   1.1432 B(  0-O ,  7-H ) :   0.9781 B(  1-C ,  2-C ) :   0.9898
B(  1-C ,  3-C ) :   0.9100 B(  1-C ,  8-H ) :   0.9416 B(  2-C ,  3-C ) :   0.9999
B(  2-C ,  9-H ) :   0.9272 B(  2-C , 10-H ) :   0.9321 B(  3-C ,  4-N ) :   1.0340
B(  3-C , 11-H ) :   0.9331 B(  4-N ,  5-C ) :   1.1485 B(  4-N ,  6-N ) :   0.1045
B(  4-N , 12-H ) :   0.9257 B(  5-C ,  6-N ) :   2.0004 B(  5-C , 13-H ) :   0.9422
B(  6-N , 14-H ) :   0.9490

FINAL SINGLE POINT ENERGY      -341.250477864604

DIPOLE MOMENT
-------------
                                X             Y             Z
Electronic contribution:     -0.29048       1.28418       1.09343
Nuclear contribution   :      0.17511      -2.62628      -2.23043
                        -----------------------------------------
Total Dipole Moment    :     -0.11537      -1.34210      -1.13701
                        -----------------------------------------
Magnitude (a.u.)       :      1.76276
Magnitude (Debye)      :      4.48058

                             ****ORCA TERMINATED NORMALLY****
TOTAL RUN TIME: 0 days 0 hours 0 minutes 7 seconds 7 msec
