                         Program Version 3.0.3 - RELEASE   -
|  1> ! RI PBE def2-SVP def2-SVP/J NBO PAL2
|  2> % maxcore 2000
|  3> % output
|  4>     # printlevel mini
|  5>     print[ P_Basis ] 0
|  6>     print[ P_SCFInfo ] 1
|  7>     print[ P_SCFIterInfo ] 1
|  8>     print[ P_OrbEn ] 0
|  9>     print[ P_Cartesian ] 0
| 10> end
| 11> *xyz 0 1
| 12>  O        0.8977070000     0.4010380000    -0.0163040000
| 13>  C        2.2126520000    -0.0309520000     0.0799060000
| 14>  C        2.8065440000    -0.8674480000    -1.0078120000
| 15>  C        3.1711760000     0.5873210000    -0.8803650000
| 16>  N        4.4793510000     0.9291110000    -0.4410090000
| 17>  C        4.7418210000     1.8676250000     0.5024310000
| 18>  O        5.8471990000     2.2541350000     0.7970070000
| 19>  H        0.3182750000    -0.3468570000     0.1528500000
| 20>  H        2.5818500000    -0.2014650000     1.0884760000
| 21>  H        2.1687720000    -1.1344900000    -1.8407040000
| 22>  H        3.5538570000    -1.6008460000    -0.7309080000
| 23>  H        2.7112330000     1.2456800000    -1.6128930000
| 24>  H        5.2742730000     0.6013140000    -0.9697490000
| 25>  H        3.8218900000     2.2378340000     0.9925660000
| 26> *
| 27>
| 28>                          ****END OF INPUT****
 Total Charge           Charge          ....    0
 Multiplicity           Mult            ....    1
 Number of Electrons    NEL             ....   54
 Basis Dimension        Dim             ....  133

MULLIKEN ATOMIC CHARGES
-----------------------
   0 O :   -0.229227
   1 C :    0.052749
   2 C :    0.003836
   3 C :   -0.047560
   4 N :   -0.091495
   5 C :    0.117928
   6 O :   -0.222184
   7 H :    0.166712
   8 H :    0.024959
   9 H :    0.035096
  10 H :    0.035799
  11 H :    0.049416
  12 H :    0.117476
  13 H :   -0.013503
Sum of atomic charges:   -0.0000000

LOEWDIN ATOMIC CHARGES
----------------------
   0 O :   -0.091504
   1 C :    0.033452
   2 C :   -0.060551
   3 C :   -0.004081
   4 N :    0.004266
   5 C :    0.051618
   6 O :   -0.179882
   7 H :    0.078971
   8 H :    0.013419
   9 H :    0.033712
  10 H :    0.032069
  11 H :    0.026930
  12 H :    0.074585
  13 H :   -0.013005

  Mayer bond orders larger than 0.1
B(  0-O ,  1-C ) :   1.1515 B(  0-O ,  7-H ) :   0.9779 B(  1-C ,  2-C ) :   0.9841
B(  1-C ,  3-C ) :   0.9252 B(  1-C ,  8-H ) :   0.9442 B(  2-C ,  3-C ) :   0.9956
B(  2-C ,  9-H ) :   0.9300 B(  2-C , 10-H ) :   0.9331 B(  3-C ,  4-N ) :   1.0263
B(  3-C , 11-H ) :   0.9346 B(  4-N ,  5-C ) :   1.1873 B(  4-N , 12-H ) :   0.9198
B(  5-C ,  6-O ) :   2.0710 B(  5-C , 13-H ) :   0.9200

FINAL SINGLE POINT ENERGY      -361.115881790986

DIPOLE MOMENT
-------------
                                X             Y             Z
Electronic contribution:      2.28636       2.79544       1.33059
Nuclear contribution   :     -3.34048      -4.10143      -1.92651
                        -----------------------------------------
Total Dipole Moment    :     -1.05412      -1.30599      -0.59593
                        -----------------------------------------
Magnitude (a.u.)       :      1.78098
Magnitude (Debye)      :      4.52690

                             ****ORCA TERMINATED NORMALLY****
TOTAL RUN TIME: 0 days 0 hours 0 minutes 5 seconds 928 msec
