                         Program Version 3.0.3 - RELEASE   -
|  1> ! RI PBE def2-SVP def2-SVP/J NBO PAL2
|  2> % maxcore 2000
|  3> % output
|  4>     # printlevel mini
|  5>     print[ P_Basis ] 0
|  6>     print[ P_SCFInfo ] 1
|  7>     print[ P_SCFIterInfo ] 1
|  8>     print[ P_OrbEn ] 0
|  9>     print[ P_Cartesian ] 0
| 10> end
| 11> *xyz 0 1
| 12>  O        0.5388610000    -0.2026230000    -0.3133810000
| 13>  C        1.8941250000    -0.3853490000    -0.0682010000
| 14>  C        2.7493070000    -1.0398650000    -1.1103890000
| 15>  C        2.8197390000     0.4444560000    -0.8807460000
| 16>  N        3.9974840000     0.9430640000    -0.2575880000
| 17>  N        3.8484580000     2.0694880000     0.4673240000
| 18>  C        4.8621200000     2.8038740000     0.6734440000
| 19>  H        0.1007030000    -1.0535020000    -0.2287780000
| 20>  H        2.1747630000    -0.5295860000     0.9715550000
| 21>  H        2.2630640000    -1.3705220000    -2.0194050000
| 22>  H        3.5866790000    -1.6400600000    -0.7763570000
| 23>  H        2.3363050000     1.0720940000    -1.6274600000
| 24>  H        4.8302450000     0.9064230000    -0.8405080000
| 25>  H        4.7368590000     3.6790610000     1.2991780000
| 26>  H        5.8530000000     2.5881580000     0.2589040000
| 27> *
| 28>
| 29>                          ****END OF INPUT****
 Total Charge           Charge          ....    0
 Multiplicity           Mult            ....    1
 Number of Electrons    NEL             ....   54
 Basis Dimension        Dim             ....  138

MULLIKEN ATOMIC CHARGES
-----------------------
   0 O :   -0.230691
   1 C :    0.075401
   2 C :   -0.024141
   3 C :   -0.001197
   4 N :   -0.093782
   5 N :   -0.067734
   6 C :   -0.058375
   7 H :    0.162587
   8 H :    0.015108
   9 H :    0.029964
  10 H :    0.030754
  11 H :    0.028522
  12 H :    0.092581
  13 H :    0.043375
  14 H :   -0.002371
Sum of atomic charges:    0.0000000

LOEWDIN ATOMIC CHARGES
----------------------
   0 O :   -0.093560
   1 C :    0.037393
   2 C :   -0.068412
   3 C :   -0.011097
   4 N :    0.014346
   5 N :   -0.020163
   6 C :   -0.076955
   7 H :    0.075854
   8 H :    0.013083
   9 H :    0.030291
  10 H :    0.029224
  11 H :    0.018041
  12 H :    0.044292
  13 H :    0.019165
  14 H :   -0.011504

  Mayer bond orders larger than 0.1
B(  0-O ,  1-C ) :   1.1483 B(  0-O ,  7-H ) :   0.9791 B(  1-C ,  2-C ) :   0.9956
B(  1-C ,  3-C ) :   0.9394 B(  1-C ,  8-H ) :   0.9342 B(  2-C ,  3-C ) :   0.9866
B(  2-C ,  9-H ) :   0.9304 B(  2-C , 10-H ) :   0.9312 B(  3-C ,  4-N ) :   1.0471
B(  3-C , 11-H ) :   0.9302 B(  4-N ,  5-N ) :   1.0801 B(  4-N ,  6-C ) :   0.1418
B(  4-N , 12-H ) :   0.9125 B(  5-N ,  6-C ) :   1.8937 B(  6-C , 13-H ) :   0.9573
B(  6-C , 14-H ) :   0.9265

FINAL SINGLE POINT ENERGY      -341.211633002113

DIPOLE MOMENT
-------------
                                X             Y             Z
Electronic contribution:     -1.89831       0.67460       0.72913
Nuclear contribution   :      2.31946      -1.41443      -1.15024
                        -----------------------------------------
Total Dipole Moment    :      0.42115      -0.73982      -0.42111
                        -----------------------------------------
Magnitude (a.u.)       :      0.94976
Magnitude (Debye)      :      2.41409

                             ****ORCA TERMINATED NORMALLY****
TOTAL RUN TIME: 0 days 0 hours 0 minutes 6 seconds 845 msec
