                         Program Version 3.0.3 - RELEASE   -
|  1> ! RI PBE def2-SVP def2-SVP/J NBO PAL2
|  2> % maxcore 2000
|  3> % output
|  4>     # printlevel mini
|  5>     print[ P_Basis ] 0
|  6>     print[ P_SCFInfo ] 1
|  7>     print[ P_SCFIterInfo ] 1
|  8>     print[ P_OrbEn ] 0
|  9>     print[ P_Cartesian ] 0
| 10> end
| 11> *xyz 0 1
| 12>  O        0.9506980000     0.3027600000     0.3182950000
| 13>  C        2.2484630000    -0.1823660000     0.2138240000
| 14>  C        2.6763990000    -0.9534040000    -1.0044000000
| 15>  C        3.1135590000     0.4638970000    -0.7943380000
| 16>  O        4.4211840000     0.7246560000    -0.3864020000
| 17>  N        5.2741550000     0.6803220000    -1.4697160000
| 18>  C        6.4627630000     0.9526740000    -1.1372900000
| 19>  H        0.3660520000    -0.4403880000     0.4899090000
| 20>  H        2.7314650000    -0.4493460000     1.1513900000
| 21>  H        1.9419150000    -1.1258310000    -1.7814020000
| 22>  H        3.4167710000    -1.7320490000    -0.8708870000
| 23>  H        2.6667320000     1.2304900000    -1.4189530000
| 24>  H        7.2004850000     0.9430060000    -1.9303880000
| 25>  H        6.7504790000     1.1887800000    -0.1136430000
| 26> *
| 27>
| 28>                          ****END OF INPUT****
 Total Charge           Charge          ....    0
 Multiplicity           Mult            ....    1
 Number of Electrons    NEL             ....   54
 Basis Dimension        Dim             ....  133

MULLIKEN ATOMIC CHARGES
-----------------------
   0 O :   -0.234191
   1 C :    0.032348
   2 C :   -0.016438
   3 C :    0.107401
   4 O :   -0.242530
   5 N :   -0.005261
   6 C :   -0.017956
   7 H :    0.163541
   8 H :    0.023437
   9 H :    0.035029
  10 H :    0.035417
  11 H :    0.031947
  12 H :    0.055993
  13 H :    0.031263
Sum of atomic charges:    0.0000000

LOEWDIN ATOMIC CHARGES
----------------------
   0 O :   -0.094987
   1 C :    0.026548
   2 C :   -0.071686
   3 C :    0.023298
   4 O :   -0.064149
   5 N :    0.014231
   6 C :   -0.045207
   7 H :    0.076293
   8 H :    0.013791
   9 H :    0.033005
  10 H :    0.034073
  11 H :    0.020244
  12 H :    0.028254
  13 H :    0.006292

  Mayer bond orders larger than 0.1
B(  0-O ,  1-C ) :   1.1373 B(  0-O ,  7-H ) :   0.9798 B(  1-C ,  2-C ) :   0.9821
B(  1-C ,  3-C ) :   0.9328 B(  1-C ,  8-H ) :   0.9372 B(  2-C ,  3-C ) :   1.0042
B(  2-C ,  9-H ) :   0.9310 B(  2-C , 10-H ) :   0.9226 B(  3-C ,  4-O ) :   1.0191
B(  3-C , 11-H ) :   0.9416 B(  4-O ,  5-N ) :   0.9513 B(  4-O ,  6-C ) :   0.1118
B(  5-N ,  6-C ) :   1.9466 B(  6-C , 12-H ) :   0.9528 B(  6-C , 13-H ) :   0.9313

FINAL SINGLE POINT ENERGY      -361.028593689252

DIPOLE MOMENT
-------------
                                X             Y             Z
Electronic contribution:     -0.16362       1.66900       0.53460
Nuclear contribution   :      0.17145      -2.23313      -0.36138
                        -----------------------------------------
Total Dipole Moment    :      0.00783      -0.56413       0.17322
                        -----------------------------------------
Magnitude (a.u.)       :      0.59018
Magnitude (Debye)      :      1.50011

                             ****ORCA TERMINATED NORMALLY****
TOTAL RUN TIME: 0 days 0 hours 0 minutes 6 seconds 238 msec
