                         Program Version 3.0.3 - RELEASE   -
|  1> ! RI PBE def2-SVP def2-SVP/J NBO PAL2
|  2> % maxcore 2000
|  3> % output
|  4>     # printlevel mini
|  5>     print[ P_Basis ] 0
|  6>     print[ P_SCFInfo ] 1
|  7>     print[ P_SCFIterInfo ] 1
|  8>     print[ P_OrbEn ] 0
|  9>     print[ P_Cartesian ] 0
| 10> end
| 11> *xyz 0 1
| 12>  O        1.0947730000     0.0639680000     0.0026800000
| 13>  C        2.5038590000    -0.0298080000    -0.0574350000
| 14>  C        3.1025350000    -1.1607010000     0.8184490000
| 15>  C        3.8431290000    -0.2735840000     1.8297550000
| 16>  C        4.5601510000     0.7244810000     0.9019980000
| 17>  C        3.1035490000     1.1639650000     0.6904830000
| 18>  N        2.8937960000     0.8318190000     2.1212080000
| 19>  H        0.7179740000    -0.7416260000    -0.3590400000
| 20>  H        2.8396670000    -0.0749370000    -1.1008450000
| 21>  H        3.7639640000    -1.8344610000     0.2683480000
| 22>  H        2.3137710000    -1.7532980000     1.2895060000
| 23>  H        4.3378310000    -0.7550670000     2.6733800000
| 24>  H        5.1199370000     0.3332220000     0.0510360000
| 25>  H        5.1293720000     1.4693980000     1.4544970000
| 26>  H        2.8202040000     2.1567510000     0.3425320000
| 27>  H        1.9433980000     0.5152760000     2.3065570000
| 28> *
| 29>
| 30>                          ****END OF INPUT****
 Total Charge           Charge          ....    0
 Multiplicity           Mult            ....    1
 Number of Electrons    NEL             ....   54
 Basis Dimension        Dim             ....  143

MULLIKEN ATOMIC CHARGES
-----------------------
   0 O :   -0.255859
   1 C :    0.066147
   2 C :    0.194206
   3 C :   -0.128949
   4 C :    0.088864
   5 C :   -0.054877
   6 N :   -0.176778
   7 H :    0.157769
   8 H :   -0.005922
   9 H :    0.004781
  10 H :   -0.008320
  11 H :   -0.006350
  12 H :    0.013697
  13 H :    0.028746
  14 H :   -0.004478
  15 H :    0.087323
Sum of atomic charges:    0.0000000

LOEWDIN ATOMIC CHARGES
----------------------
   0 O :   -0.114393
   1 C :    0.034365
   2 C :   -0.062009
   3 C :    0.027185
   4 C :   -0.027865
   5 C :    0.020586
   6 N :   -0.088583
   7 H :    0.069456
   8 H :    0.002836
   9 H :    0.020842
  10 H :    0.018711
  11 H :    0.006829
  12 H :    0.013651
  13 H :    0.029623
  14 H :    0.010889
  15 H :    0.037877

  Mayer bond orders larger than 0.1
B(  0-O ,  1-C ) :   1.0930 B(  0-O ,  7-H ) :   0.9786 B(  1-C ,  2-C ) :   1.0355
B(  1-C ,  5-C ) :   0.9910 B(  1-C ,  8-H ) :   0.8948 B(  2-C ,  3-C ) :   1.0443
B(  2-C ,  9-H ) :   0.8996 B(  2-C , 10-H ) :   0.8826 B(  3-C ,  4-C ) :   0.9928
B(  3-C ,  6-N ) :   0.9893 B(  3-C , 11-H ) :   0.9645 B(  4-C ,  5-C ) :   0.9979
B(  4-C , 12-H ) :   0.9444 B(  4-C , 13-H ) :   0.9247 B(  5-C ,  6-N ) :   0.9971
B(  5-C , 14-H ) :   0.9681 B(  6-N , 15-H ) :   0.9327

FINAL SINGLE POINT ENERGY      -325.223423014692

DIPOLE MOMENT
-------------
                                X             Y             Z
Electronic contribution:     -2.19576       1.31977       0.41271
Nuclear contribution   :      2.22606      -2.09528      -0.91686
                        -----------------------------------------
Total Dipole Moment    :      0.03030      -0.77551      -0.50414
                        -----------------------------------------
Magnitude (a.u.)       :      0.92547
Magnitude (Debye)      :      2.35235

                             ****ORCA TERMINATED NORMALLY****
TOTAL RUN TIME: 0 days 0 hours 0 minutes 7 seconds 523 msec
