                         Program Version 3.0.3 - RELEASE   -
|  1> ! RI PBE def2-SVP def2-SVP/J NBO PAL2
|  2> % maxcore 2000
|  3> % output
|  4>     # printlevel mini
|  5>     print[ P_Basis ] 0
|  6>     print[ P_SCFInfo ] 1
|  7>     print[ P_SCFIterInfo ] 1
|  8>     print[ P_OrbEn ] 0
|  9>     print[ P_Cartesian ] 0
| 10> end
| 11> *xyz 0 1
| 12>  O        1.0897210000    -0.0848160000     0.0511230000
| 13>  C        2.2871710000    -0.0904380000     0.0162530000
| 14>  C        3.2531060000    -1.2812040000     0.0554840000
| 15>  C        4.5423050000    -0.4549010000    -0.0095910000
| 16>  C        4.2442930000     0.5617160000    -1.1259170000
| 17>  C        3.2613020000     1.0755150000    -0.0517560000
| 18>  N        4.2968190000     0.6673690000     0.9404270000
| 19>  H        3.0839940000    -1.9584550000    -0.7855240000
| 20>  H        3.1553210000    -1.8525120000     0.9822050000
| 21>  H        5.4954570000    -0.9765700000     0.0629320000
| 22>  H        3.8426760000     0.1969360000    -2.0717940000
| 23>  H        5.0623010000     1.2648720000    -1.2737100000
| 24>  H        2.8582120000     2.0849680000    -0.0229250000
| 25>  H        3.9106110000     0.3725100000     1.8365930000
| 26> *
| 27>
| 28>                          ****END OF INPUT****
 Total Charge           Charge          ....    0
 Multiplicity           Mult            ....    1
 Number of Electrons    NEL             ....   52
 Basis Dimension        Dim             ....  133

MULLIKEN ATOMIC CHARGES
-----------------------
   0 O :   -0.123639
   1 C :   -0.012438
   2 C :    0.146216
   3 C :   -0.140198
   4 C :    0.107871
   5 C :   -0.064942
   6 N :   -0.159720
   7 H :    0.038950
   8 H :    0.040267
   9 H :    0.009488
  10 H :    0.032971
  11 H :    0.036044
  12 H :   -0.008575
  13 H :    0.097705
Sum of atomic charges:   -0.0000000

LOEWDIN ATOMIC CHARGES
----------------------
   0 O :   -0.110048
   1 C :    0.036195
   2 C :   -0.073657
   3 C :    0.028088
   4 C :   -0.017099
   5 C :    0.002403
   6 N :   -0.072788
   7 H :    0.038812
   8 H :    0.038046
   9 H :    0.012103
  10 H :    0.021323
  11 H :    0.034066
  12 H :    0.017235
  13 H :    0.045321

  Mayer bond orders larger than 0.1
B(  0-O ,  1-C ) :   2.2480 B(  1-C ,  2-C ) :   0.9208 B(  1-C ,  5-C ) :   0.9037
B(  2-C ,  3-C ) :   0.9924 B(  2-C ,  7-H ) :   0.9002 B(  2-C ,  8-H ) :   0.9030
B(  3-C ,  4-C ) :   0.9958 B(  3-C ,  6-N ) :   0.9814 B(  3-C ,  9-H ) :   0.9584
B(  4-C ,  5-C ) :   0.9539 B(  4-C , 10-H ) :   0.9499 B(  4-C , 11-H ) :   0.9169
B(  5-C ,  6-N ) :   0.9623 B(  5-C , 12-H ) :   0.9809 B(  6-N , 13-H ) :   0.9399

FINAL SINGLE POINT ENERGY      -324.032209556634

DIPOLE MOMENT
-------------
                                X             Y             Z
Electronic contribution:     -3.51821       0.84512       1.05843
Nuclear contribution   :      4.28542      -1.14058      -1.14080
                        -----------------------------------------
Total Dipole Moment    :      0.76721      -0.29546      -0.08236
                        -----------------------------------------
Magnitude (a.u.)       :      0.82625
Magnitude (Debye)      :      2.10016

                             ****ORCA TERMINATED NORMALLY****
TOTAL RUN TIME: 0 days 0 hours 0 minutes 7 seconds 169 msec
