                         Program Version 3.0.3 - RELEASE   -
|  1> ! RI PBE def2-SVP def2-SVP/J NBO PAL2
|  2> % maxcore 2000
|  3> % output
|  4>     # printlevel mini
|  5>     print[ P_Basis ] 0
|  6>     print[ P_SCFInfo ] 1
|  7>     print[ P_SCFIterInfo ] 1
|  8>     print[ P_OrbEn ] 0
|  9>     print[ P_Cartesian ] 0
| 10> end
| 11> *xyz 0 1
| 12>  O        0.9115020000     0.0508470000     0.1570360000
| 13>  C        2.1126640000    -0.0183660000     0.0540550000
| 14>  C        2.9525570000    -1.2886640000    -0.0493830000
| 15>  C        4.3427220000    -0.8126460000    -0.3863990000
| 16>  C        4.5430190000    -0.0056650000    -1.6399190000
| 17>  C        4.3153360000     0.6874600000    -0.3297860000
| 18>  N        2.9713210000     1.0422910000    -0.0146350000
| 19>  H        2.5053620000    -1.9489530000    -0.7949890000
| 20>  H        2.9185900000    -1.8106190000     0.9104860000
| 21>  H        5.1945320000    -1.3486630000     0.0103180000
| 22>  H        3.7406960000     0.0310810000    -2.3687110000
| 23>  H        5.5431850000     0.0128660000    -2.0556730000
| 24>  H        5.0996420000     1.2632570000     0.1453180000
| 25>  H        2.6013930000     1.9684830000    -0.1523290000
| 26> *
| 27>
| 28>                          ****END OF INPUT****
 Total Charge           Charge          ....    0
 Multiplicity           Mult            ....    1
 Number of Electrons    NEL             ....   52
 Basis Dimension        Dim             ....  133

MULLIKEN ATOMIC CHARGES
-----------------------
   0 O :   -0.186439
   1 C :   -0.023563
   2 C :    0.120656
   3 C :   -0.180482
   4 C :    0.030163
   5 C :    0.014476
   6 N :   -0.100293
   7 H :    0.043892
   8 H :    0.045670
   9 H :    0.024866
  10 H :    0.036313
  11 H :    0.032832
  12 H :    0.026579
  13 H :    0.115331
Sum of atomic charges:   -0.0000000

LOEWDIN ATOMIC CHARGES
----------------------
   0 O :   -0.180221
   1 C :    0.024634
   2 C :   -0.055623
   3 C :   -0.040561
   4 C :   -0.049096
   5 C :    0.010849
   6 N :    0.009564
   7 H :    0.045185
   8 H :    0.047983
   9 H :    0.028217
  10 H :    0.029952
  11 H :    0.032590
  12 H :    0.021325
  13 H :    0.075201

  Mayer bond orders larger than 0.1
B(  0-O ,  1-C ) :   2.1487 B(  1-C ,  2-C ) :   0.9404 B(  1-C ,  6-N ) :   1.1701
B(  2-C ,  3-C ) :   1.0815 B(  2-C ,  7-H ) :   0.9153 B(  2-C ,  8-H ) :   0.9107
B(  3-C ,  4-C ) :   0.9788 B(  3-C ,  5-C ) :   0.9346 B(  3-C ,  9-H ) :   0.9394
B(  4-C ,  5-C ) :   0.9876 B(  4-C , 10-H ) :   0.9316 B(  4-C , 11-H ) :   0.9359
B(  5-C ,  6-N ) :   1.0331 B(  5-C , 12-H ) :   0.9516 B(  6-N , 13-H ) :   0.9339

FINAL SINGLE POINT ENERGY      -324.078877149547

DIPOLE MOMENT
-------------
                                X             Y             Z
Electronic contribution:     -3.99193       1.66128       1.74530
Nuclear contribution   :      5.34524      -1.46147      -1.98353
                        -----------------------------------------
Total Dipole Moment    :      1.35332       0.19981      -0.23823
                        -----------------------------------------
Magnitude (a.u.)       :      1.38858
Magnitude (Debye)      :      3.52948

                             ****ORCA TERMINATED NORMALLY****
TOTAL RUN TIME: 0 days 0 hours 0 minutes 7 seconds 56 msec
