                         Program Version 3.0.3 - RELEASE   -
|  1> ! RI PBE def2-SVP def2-SVP/J NBO PAL2
|  2> % maxcore 2000
|  3> % output
|  4>     # printlevel mini
|  5>     print[ P_Basis ] 0
|  6>     print[ P_SCFInfo ] 1
|  7>     print[ P_SCFIterInfo ] 1
|  8>     print[ P_OrbEn ] 0
|  9>     print[ P_Cartesian ] 0
| 10> end
| 11> *xyz 0 1
| 12>  O        1.2086280000     0.0368160000     0.7980390000
| 13>  C        2.5166620000     0.0183680000     0.2627750000
| 14>  C        2.9031150000    -1.3758170000    -0.2476830000
| 15>  C        2.3803450000    -1.3736050000    -1.6707270000
| 16>  C        3.2104970000    -0.7644740000    -2.7233400000
| 17>  N        2.1548980000     0.0229110000    -2.1025530000
| 18>  C        2.6220270000     0.8763040000    -0.9956920000
| 19>  H        0.5911720000    -0.1314240000     0.0790030000
| 20>  H        3.1667120000     0.3691860000     1.0672120000
| 21>  H        2.4463300000    -2.1491900000     0.3701250000
| 22>  H        3.9875350000    -1.5144860000    -0.2141720000
| 23>  H        1.6059290000    -2.0820890000    -1.9469100000
| 24>  H        3.0494380000    -1.0146310000    -3.7671680000
| 25>  H        4.2395110000    -0.5204350000    -2.4668440000
| 26>  H        1.9868650000     1.7607670000    -0.9180860000
| 27>  H        3.6527450000     1.2117980000    -1.1565790000
| 28> *
| 29>
| 30>                          ****END OF INPUT****
 Total Charge           Charge          ....    0
 Multiplicity           Mult            ....    1
 Number of Electrons    NEL             ....   54
 Basis Dimension        Dim             ....  143

MULLIKEN ATOMIC CHARGES
-----------------------
   0 O :   -0.257182
   1 C :    0.030457
   2 C :    0.129469
   3 C :   -0.161861
   4 C :    0.121715
   5 N :   -0.296530
   6 C :    0.145006
   7 H :    0.157839
   8 H :    0.008411
   9 H :    0.016487
  10 H :    0.007158
  11 H :    0.025165
  12 H :    0.029874
  13 H :    0.019846
  14 H :    0.021351
  15 H :    0.002793
Sum of atomic charges:   -0.0000000

LOEWDIN ATOMIC CHARGES
----------------------
   0 O :   -0.108135
   1 C :    0.045619
   2 C :   -0.057526
   3 C :   -0.009718
   4 C :    0.012247
   5 N :   -0.128157
   6 C :    0.000218
   7 H :    0.069040
   8 H :    0.021319
   9 H :    0.032232
  10 H :    0.030138
  11 H :    0.017472
  12 H :    0.021723
  13 H :    0.012079
  14 H :    0.024259
  15 H :    0.017190

  Mayer bond orders larger than 0.1
B(  0-O ,  1-C ) :   1.0831 B(  0-O ,  7-H ) :   0.9811 B(  1-C ,  2-C ) :   1.0291
B(  1-C ,  6-C ) :   1.0400 B(  1-C ,  8-H ) :   0.9183 B(  2-C ,  3-C ) :   1.0429
B(  2-C ,  9-H ) :   0.9255 B(  2-C , 10-H ) :   0.9035 B(  3-C ,  4-C ) :   1.0338
B(  3-C ,  5-N ) :   0.9509 B(  3-C , 11-H ) :   0.9504 B(  4-C ,  5-N ) :   0.9843
B(  4-C , 12-H ) :   0.9444 B(  4-C , 13-H ) :   0.9173 B(  5-N ,  6-C ) :   0.9859
B(  6-C , 14-H ) :   0.9295 B(  6-C , 15-H ) :   0.9167

FINAL SINGLE POINT ENERGY      -325.222964287401

DIPOLE MOMENT
-------------
                                X             Y             Z
Electronic contribution:     -2.39320       0.57075       0.49689
Nuclear contribution   :      2.89119      -0.85957      -0.69311
                        -----------------------------------------
Total Dipole Moment    :      0.49799      -0.28882      -0.19622
                        -----------------------------------------
Magnitude (a.u.)       :      0.60821
Magnitude (Debye)      :      1.54594

                             ****ORCA TERMINATED NORMALLY****
TOTAL RUN TIME: 0 days 0 hours 0 minutes 7 seconds 459 msec
