                         Program Version 3.0.3 - RELEASE   -
|  1> ! RI PBE def2-SVP def2-SVP/J NBO PAL2
|  2> % maxcore 2000
|  3> % output
|  4>     # printlevel mini
|  5>     print[ P_Basis ] 0
|  6>     print[ P_SCFInfo ] 1
|  7>     print[ P_SCFIterInfo ] 1
|  8>     print[ P_OrbEn ] 0
|  9>     print[ P_Cartesian ] 0
| 10> end
| 11> *xyz 0 1
| 12>  O        1.9724720000     0.1601410000     1.6372580000
| 13>  C        2.5813640000     0.0095120000     0.6158200000
| 14>  C        2.9907170000    -1.3195890000    -0.0027760000
| 15>  C        3.9443920000    -0.9376320000    -1.0988030000
| 16>  C        5.1108350000    -0.1207450000    -0.7145260000
| 17>  N        3.9480060000     0.5263550000    -1.3049020000
| 18>  C        3.0638060000     1.1161960000    -0.3139080000
| 19>  H        2.0892640000    -1.8030140000    -0.3939420000
| 20>  H        3.4079860000    -1.9791000000     0.7603700000
| 21>  H        3.9803730000    -1.5359820000    -2.0021720000
| 22>  H        6.0019160000    -0.1152870000    -1.3321310000
| 23>  H        5.2932170000     0.0234700000     0.3494430000
| 24>  H        2.1893930000     1.5523920000    -0.8099430000
| 25>  H        3.5494700000     1.9142820000     0.2522140000
| 26> *
| 27>
| 28>                          ****END OF INPUT****
 Total Charge           Charge          ....    0
 Multiplicity           Mult            ....    1
 Number of Electrons    NEL             ....   52
 Basis Dimension        Dim             ....  133

MULLIKEN ATOMIC CHARGES
-----------------------
   0 O :   -0.131526
   1 C :   -0.176357
   2 C :    0.166209
   3 C :   -0.129884
   4 C :    0.088294
   5 N :   -0.278103
   6 C :    0.175918
   7 H :    0.053337
   8 H :    0.049769
   9 H :    0.026233
  10 H :    0.036422
  11 H :    0.028372
  12 H :    0.049940
  13 H :    0.041376
Sum of atomic charges:   -0.0000000

LOEWDIN ATOMIC CHARGES
----------------------
   0 O :   -0.104800
   1 C :    0.047106
   2 C :   -0.071476
   3 C :   -0.001389
   4 C :    0.006982
   5 N :   -0.112929
   6 C :   -0.018085
   7 H :    0.054833
   8 H :    0.049356
   9 H :    0.021810
  10 H :    0.026357
  11 H :    0.015117
  12 H :    0.046521
  13 H :    0.040598

  Mayer bond orders larger than 0.1
B(  0-O ,  1-C ) :   2.2211 B(  1-C ,  2-C ) :   0.9399 B(  1-C ,  6-C ) :   0.9433
B(  2-C ,  3-C ) :   1.0267 B(  2-C ,  7-H ) :   0.9053 B(  2-C ,  8-H ) :   0.9071
B(  3-C ,  4-C ) :   1.0330 B(  3-C ,  5-N ) :   0.9450 B(  3-C ,  9-H ) :   0.9406
B(  4-C ,  5-N ) :   0.9608 B(  4-C , 10-H ) :   0.9421 B(  4-C , 11-H ) :   0.9310
B(  5-N ,  6-C ) :   1.0439 B(  6-C , 12-H ) :   0.9081 B(  6-C , 13-H ) :   0.9230

FINAL SINGLE POINT ENERGY      -324.037628261981

DIPOLE MOMENT
-------------
                                X             Y             Z
Electronic contribution:     -2.39118       0.93295       1.72030
Nuclear contribution   :      2.80594      -1.33862      -2.04897
                        -----------------------------------------
Total Dipole Moment    :      0.41477      -0.40566      -0.32866
                        -----------------------------------------
Magnitude (a.u.)       :      0.66679
Magnitude (Debye)      :      1.69486

                             ****ORCA TERMINATED NORMALLY****
TOTAL RUN TIME: 0 days 0 hours 0 minutes 6 seconds 417 msec
