                         Program Version 3.0.3 - RELEASE   -
|  1> ! RI PBE def2-SVP def2-SVP/J NBO PAL2
|  2> % maxcore 2000
|  3> % output
|  4>     # printlevel mini
|  5>     print[ P_Basis ] 0
|  6>     print[ P_SCFInfo ] 1
|  7>     print[ P_SCFIterInfo ] 1
|  8>     print[ P_OrbEn ] 0
|  9>     print[ P_Cartesian ] 0
| 10> end
| 11> *xyz 0 1
| 12>  O        1.5914200000     0.2128980000     1.1850040000
| 13>  C        2.4018170000    -0.0099070000     0.3188480000
| 14>  C        2.9662740000    -1.3638280000    -0.1004510000
| 15>  C        3.8948710000    -1.0342700000    -1.2357180000
| 16>  C        5.0484180000    -0.1499490000    -0.9759790000
| 17>  N        3.8037540000     0.4141820000    -1.5210210000
| 18>  N        2.9943940000     0.9137810000    -0.4851730000
| 19>  H        2.1356470000    -1.9981940000    -0.4163850000
| 20>  H        3.4456340000    -1.8467660000     0.7526600000
| 21>  H        3.9042800000    -1.6711660000    -2.1122610000
| 22>  H        5.8816650000    -0.1431720000    -1.6684990000
| 23>  H        5.2799500000     0.1026530000     0.0529800000
| 24>  H        2.6494740000     1.8531480000    -0.5867050000
| 25> *
| 26>
| 27>                          ****END OF INPUT****
 Total Charge           Charge          ....    0
 Multiplicity           Mult            ....    1
 Number of Electrons    NEL             ....   52
 Basis Dimension        Dim             ....  128

MULLIKEN ATOMIC CHARGES
-----------------------
   0 O :   -0.179004
   1 C :    0.012122
   2 C :    0.082956
   3 C :   -0.121912
   4 C :    0.102747
   5 N :   -0.175938
   6 N :   -0.076100
   7 H :    0.053040
   8 H :    0.053789
   9 H :    0.038178
  10 H :    0.045039
  11 H :    0.035918
  12 H :    0.129166
Sum of atomic charges:   -0.0000000

LOEWDIN ATOMIC CHARGES
----------------------
   0 O :   -0.176629
   1 C :    0.013750
   2 C :   -0.066631
   3 C :   -0.003210
   4 C :    0.002875
   5 N :   -0.066304
   6 N :    0.041682
   7 H :    0.051078
   8 H :    0.049449
   9 H :    0.026818
  10 H :    0.028545
  11 H :    0.021227
  12 H :    0.077351

  Mayer bond orders larger than 0.1
B(  0-O ,  1-C ) :   2.1545 B(  0-O ,  6-N ) :   0.1076 B(  1-C ,  2-C ) :   0.9307
B(  1-C ,  6-N ) :   1.1537 B(  2-C ,  3-C ) :   1.0740 B(  2-C ,  7-H ) :   0.9104
B(  2-C ,  8-H ) :   0.9112 B(  3-C ,  4-C ) :   1.0282 B(  3-C ,  5-N ) :   0.9290
B(  3-C ,  9-H ) :   0.9415 B(  4-C ,  5-N ) :   0.9429 B(  4-C , 10-H ) :   0.9429
B(  4-C , 11-H ) :   0.9368 B(  5-N ,  6-N ) :   0.9744 B(  6-N , 12-H ) :   0.9371

FINAL SINGLE POINT ENERGY      -340.059624285720

DIPOLE MOMENT
-------------
                                X             Y             Z
Electronic contribution:     -2.83912       2.44303       0.99545
Nuclear contribution   :      3.69937      -2.74646      -1.58769
                        -----------------------------------------
Total Dipole Moment    :      0.86024      -0.30342      -0.59223
                        -----------------------------------------
Magnitude (a.u.)       :      1.08758
Magnitude (Debye)      :      2.76441

                             ****ORCA TERMINATED NORMALLY****
TOTAL RUN TIME: 0 days 0 hours 0 minutes 6 seconds 274 msec
