                         Program Version 3.0.3 - RELEASE   -
|  1> ! RI PBE def2-SVP def2-SVP/J NBO PAL2
|  2> % maxcore 2000
|  3> % output
|  4>     # printlevel mini
|  5>     print[ P_Basis ] 0
|  6>     print[ P_SCFInfo ] 1
|  7>     print[ P_SCFIterInfo ] 1
|  8>     print[ P_OrbEn ] 0
|  9>     print[ P_Cartesian ] 0
| 10> end
| 11> *xyz 0 1
| 12>  O        1.1362330000     0.2152180000     0.6333190000
| 13>  C        2.4842490000     0.0368450000     0.2220660000
| 14>  C        2.7075550000    -1.3717770000    -0.3556390000
| 15>  C        2.4057470000    -1.2404890000    -1.8327670000
| 16>  N        3.5245050000    -0.6682530000    -2.5875890000
| 17>  C        2.4073490000     0.1935220000    -2.1884220000
| 18>  C        2.7048230000     1.0034040000    -0.9452600000
| 19>  H        0.9363690000    -0.4416960000     1.3051350000
| 20>  H        3.1596920000     0.2455800000     1.0613860000
| 21>  H        2.0580780000    -2.0993930000     0.1384370000
| 22>  H        3.7424770000    -1.6944690000    -0.2126470000
| 23>  H        1.7504710000    -1.9490700000    -2.3262440000
| 24>  H        3.4373150000    -0.9124220000    -3.5690000000
| 25>  H        1.7531930000     0.5886690000    -2.9570710000
| 26>  H        2.0404210000     1.8613970000    -0.8333620000
| 27>  H        3.7362140000     1.3626330000    -0.9686410000
| 28> *
| 29>
| 30>                          ****END OF INPUT****
 Total Charge           Charge          ....    0
 Multiplicity           Mult            ....    1
 Number of Electrons    NEL             ....   54
 Basis Dimension        Dim             ....  143

MULLIKEN ATOMIC CHARGES
-----------------------
   0 O :   -0.263417
   1 C :    0.024950
   2 C :    0.153764
   3 C :   -0.099687
   4 N :   -0.170058
   5 C :   -0.106855
   6 C :    0.168747
   7 H :    0.148646
   8 H :   -0.014117
   9 H :   -0.009324
  10 H :    0.005816
  11 H :    0.014202
  12 H :    0.103038
  13 H :    0.017997
  14 H :    0.016425
  15 H :    0.009873
Sum of atomic charges:   -0.0000000

LOEWDIN ATOMIC CHARGES
----------------------
   0 O :   -0.119898
   1 C :    0.058570
   2 C :   -0.053772
   3 C :   -0.000461
   4 N :   -0.107696
   5 C :    0.000172
   6 C :   -0.041954
   7 H :    0.063452
   8 H :    0.001623
   9 H :    0.021796
  10 H :    0.030221
  11 H :    0.012853
  12 H :    0.056635
  13 H :    0.014248
  14 H :    0.032695
  15 H :    0.031515

  Mayer bond orders larger than 0.1
B(  0-O ,  1-C ) :   1.0874 B(  0-O ,  7-H ) :   0.9820 B(  1-C ,  2-C ) :   1.0511
B(  1-C ,  6-C ) :   1.0657 B(  1-C ,  8-H ) :   0.9206 B(  2-C ,  3-C ) :   1.0289
B(  2-C ,  9-H ) :   0.9261 B(  2-C , 10-H ) :   0.8901 B(  3-C ,  4-N ) :   0.9656
B(  3-C ,  5-C ) :   1.0302 B(  3-C , 11-H ) :   0.9496 B(  4-N ,  5-C ) :   0.9598
B(  4-N , 12-H ) :   0.9382 B(  5-C ,  6-C ) :   1.0368 B(  5-C , 13-H ) :   0.9507
B(  6-C , 14-H ) :   0.9208 B(  6-C , 15-H ) :   0.9008

FINAL SINGLE POINT ENERGY      -325.230368041466

DIPOLE MOMENT
-------------
                                X             Y             Z
Electronic contribution:     -0.75735       0.20793      -0.37190
Nuclear contribution   :      0.50541      -0.67106       0.32915
                        -----------------------------------------
Total Dipole Moment    :     -0.25194      -0.46314      -0.04274
                        -----------------------------------------
Magnitude (a.u.)       :      0.52896
Magnitude (Debye)      :      1.34451

                             ****ORCA TERMINATED NORMALLY****
TOTAL RUN TIME: 0 days 0 hours 0 minutes 6 seconds 855 msec
