                         Program Version 3.0.3 - RELEASE   -
|  1> ! RI PBE def2-SVP def2-SVP/J NBO PAL2
|  2> % maxcore 2000
|  3> % output
|  4>     # printlevel mini
|  5>     print[ P_Basis ] 0
|  6>     print[ P_SCFInfo ] 1
|  7>     print[ P_SCFIterInfo ] 1
|  8>     print[ P_OrbEn ] 0
|  9>     print[ P_Cartesian ] 0
| 10> end
| 11> *xyz 0 1
| 12>  O        1.9131540000     0.0323870000     1.5740110000
| 13>  C        2.5778830000     0.0015570000     0.5771770000
| 14>  C        3.0356650000    -1.2676400000    -0.1369190000
| 15>  C        4.0371610000    -0.7985170000    -1.1512330000
| 16>  N        5.1411770000    -0.0580280000    -0.5411440000
| 17>  C        4.0575780000     0.6852260000    -1.1834890000
| 18>  C        3.0702100000     1.2254530000    -0.1909650000
| 19>  H        2.1611740000    -1.7290100000    -0.6088180000
| 20>  H        3.4368920000    -1.9772340000     0.5890490000
| 21>  H        4.2231060000    -1.3776820000    -2.0481910000
| 22>  H        5.9581790000    -0.0820470000    -1.1412000000
| 23>  H        4.2588720000     1.2195760000    -2.1046220000
| 24>  H        2.2085590000     1.6899760000    -0.6829420000
| 25>  H        3.4913890000     1.9544740000     0.5037940000
| 26> *
| 27>
| 28>                          ****END OF INPUT****
 Total Charge           Charge          ....    0
 Multiplicity           Mult            ....    1
 Number of Electrons    NEL             ....   52
 Basis Dimension        Dim             ....  133

MULLIKEN ATOMIC CHARGES
-----------------------
   0 O :   -0.134580
   1 C :   -0.160994
   2 C :    0.196183
   3 C :   -0.116766
   4 N :   -0.172730
   5 C :   -0.118217
   6 C :    0.199243
   7 H :    0.040351
   8 H :    0.042119
   9 H :    0.016595
  10 H :    0.111221
  11 H :    0.016257
  12 H :    0.039816
  13 H :    0.041502
Sum of atomic charges:   -0.0000000

LOEWDIN ATOMIC CHARGES
----------------------
   0 O :   -0.109040
   1 C :    0.068346
   2 C :   -0.066890
   3 C :   -0.004855
   4 N :   -0.102866
   5 C :   -0.004894
   6 C :   -0.066362
   7 H :    0.048932
   8 H :    0.048584
   9 H :    0.015261
  10 H :    0.061396
  11 H :    0.015157
  12 H :    0.048821
  13 H :    0.048410

  Mayer bond orders larger than 0.1
B(  0-O ,  1-C ) :   2.2331 B(  1-C ,  2-C ) :   0.9446 B(  1-C ,  6-C ) :   0.9451
B(  2-C ,  3-C ) :   1.0062 B(  2-C ,  7-H ) :   0.9030 B(  2-C ,  8-H ) :   0.8922
B(  3-C ,  4-N ) :   0.9638 B(  3-C ,  5-C ) :   1.0021 B(  3-C ,  9-H ) :   0.9560
B(  4-N ,  5-C ) :   0.9627 B(  4-N , 10-H ) :   0.9375 B(  5-C ,  6-C ) :   1.0051
B(  5-C , 11-H ) :   0.9565 B(  6-C , 12-H ) :   0.9030 B(  6-C , 13-H ) :   0.8925

FINAL SINGLE POINT ENERGY      -324.048226157690

DIPOLE MOMENT
-------------
                                X             Y             Z
Electronic contribution:     -1.31854       0.08037       2.84419
Nuclear contribution   :      1.81315      -0.11709      -4.25245
                        -----------------------------------------
Total Dipole Moment    :      0.49461      -0.03672      -1.40826
                        -----------------------------------------
Magnitude (a.u.)       :      1.49305
Magnitude (Debye)      :      3.79502

                             ****ORCA TERMINATED NORMALLY****
TOTAL RUN TIME: 0 days 0 hours 0 minutes 6 seconds 600 msec
