                         Program Version 3.0.3 - RELEASE   -
|  1> ! RI PBE def2-SVP def2-SVP/J NBO PAL2
|  2> % maxcore 2000
|  3> % output
|  4>     # printlevel mini
|  5>     print[ P_Basis ] 0
|  6>     print[ P_SCFInfo ] 1
|  7>     print[ P_SCFIterInfo ] 1
|  8>     print[ P_OrbEn ] 0
|  9>     print[ P_Cartesian ] 0
| 10> end
| 11> *xyz 0 1
| 12>  O        1.5365810000    -0.0667210000     1.2269760000
| 13>  C        2.4497730000    -0.0662450000     0.4644780000
| 14>  C        3.2813750000     1.0368590000    -0.1808210000
| 15>  C        4.2874640000    -0.0653370000    -0.6224030000
| 16>  C        3.2822360000    -1.1684580000    -0.1811900000
| 17>  C        4.6827340000    -0.0649490000    -2.0138150000
| 18>  N        4.9789690000    -0.0648450000    -3.1252710000
| 19>  H        3.6558730000     1.8190420000     0.4796430000
| 20>  H        2.7562260000     1.4976260000    -1.0207840000
| 21>  H        5.1834160000    -0.0650770000     0.0004130000
| 22>  H        3.6572890000    -1.9507280000     0.4788530000
| 23>  H        2.7573650000    -1.6291560000    -1.0213800000
| 24> *
| 25>
| 26>                          ****END OF INPUT****
 Total Charge           Charge          ....    0
 Multiplicity           Mult            ....    1
 Number of Electrons    NEL             ....   50
 Basis Dimension        Dim             ....  123

MULLIKEN ATOMIC CHARGES
-----------------------
   0 O :   -0.101738
   1 C :   -0.081795
   2 C :    0.126642
   3 C :   -0.295570
   4 C :    0.126654
   5 C :   -0.159092
   6 N :    0.081205
   7 H :    0.061301
   8 H :    0.058330
   9 H :    0.064433
  10 H :    0.061308
  11 H :    0.058323
Sum of atomic charges:   -0.0000000

LOEWDIN ATOMIC CHARGES
----------------------
   0 O :   -0.078885
   1 C :    0.053044
   2 C :   -0.038353
   3 C :   -0.058002
   4 C :   -0.038350
   5 C :   -0.048141
   6 N :   -0.060440
   7 H :    0.046426
   8 H :    0.058189
   9 H :    0.059889
  10 H :    0.046421
  11 H :    0.058201

  Mayer bond orders larger than 0.1
B(  0-O ,  1-C ) :   2.2559 B(  1-C ,  2-C ) :   0.9805 B(  1-C ,  4-C ) :   0.9805
B(  2-C ,  3-C ) :   1.0886 B(  2-C ,  4-C ) :  -0.1308 B(  2-C ,  7-H ) :   0.9196
B(  2-C ,  8-H ) :   0.8865 B(  3-C ,  4-C ) :   1.0886 B(  3-C ,  5-C ) :   1.0723
B(  3-C ,  9-H ) :   0.8442 B(  4-C , 10-H ) :   0.9196 B(  4-C , 11-H ) :   0.8865
B(  5-C ,  6-N ) :   3.0666

FINAL SINGLE POINT ENERGY      -322.841420530254

DIPOLE MOMENT
-------------
                                X             Y             Z
Electronic contribution:     -0.47135      -0.00014      -0.96103
Nuclear contribution   :      0.67443       0.00017       1.74247
                        -----------------------------------------
Total Dipole Moment    :      0.20308       0.00003       0.78144
                        -----------------------------------------
Magnitude (a.u.)       :      0.80740
Magnitude (Debye)      :      2.05225

                             ****ORCA TERMINATED NORMALLY****
TOTAL RUN TIME: 0 days 0 hours 0 minutes 5 seconds 609 msec
