                         Program Version 3.0.3 - RELEASE   -
|  1> ! RI PBE def2-SVP def2-SVP/J NBO PAL2
|  2> % maxcore 2000
|  3> % output
|  4>     # printlevel mini
|  5>     print[ P_Basis ] 0
|  6>     print[ P_SCFInfo ] 1
|  7>     print[ P_SCFIterInfo ] 1
|  8>     print[ P_OrbEn ] 0
|  9>     print[ P_Cartesian ] 0
| 10> end
| 11> *xyz 0 1
| 12>  O        1.6730950000     1.1927410000    -0.8959860000
| 13>  C        2.5253140000     0.5662410000    -0.3618930000
| 14>  C        3.7348150000     0.8988090000     0.4950820000
| 15>  C        4.2707900000    -0.5242500000     0.2209100000
| 16>  C        2.8923410000    -0.9453830000    -0.3605970000
| 17>  C        2.8421050000    -1.6720030000    -1.6045590000
| 18>  N        2.8267450000    -2.2325920000    -2.6088200000
| 19>  H        3.4444510000     1.0665760000     1.5358600000
| 20>  H        4.3294680000     1.7480840000     0.1575110000
| 21>  H        5.0462770000    -0.5374180000    -0.5431860000
| 22>  H        4.6030810000    -1.0975830000     1.0833870000
| 23>  H        2.2747270000    -1.4508320000     0.3893010000
| 24> *
| 25>
| 26>                          ****END OF INPUT****
 Total Charge           Charge          ....    0
 Multiplicity           Mult            ....    1
 Number of Electrons    NEL             ....   50
 Basis Dimension        Dim             ....  123

MULLIKEN ATOMIC CHARGES
-----------------------
   0 O :   -0.077676
   1 C :    0.019030
   2 C :   -0.012896
   3 C :    0.076852
   4 C :   -0.228831
   5 C :   -0.145300
   6 N :    0.090221
   7 H :    0.062214
   8 H :    0.057891
   9 H :    0.045660
  10 H :    0.031438
  11 H :    0.081397
Sum of atomic charges:    0.0000000

LOEWDIN ATOMIC CHARGES
----------------------
   0 O :   -0.060008
   1 C :    0.071015
   2 C :   -0.058722
   3 C :   -0.007567
   4 C :   -0.096994
   5 C :   -0.042343
   6 N :   -0.053178
   7 H :    0.053932
   8 H :    0.046916
   9 H :    0.040851
  10 H :    0.033063
  11 H :    0.073035

  Mayer bond orders larger than 0.1
B(  0-O ,  1-C ) :   2.2978 B(  1-C ,  2-C ) :   1.0073 B(  1-C ,  4-C ) :   0.8848
B(  2-C ,  3-C ) :   1.1271 B(  2-C ,  7-H ) :   0.9059 B(  2-C ,  8-H ) :   0.9202
B(  3-C ,  4-C ) :   1.1000 B(  3-C ,  9-H ) :   0.9237 B(  3-C , 10-H ) :   0.9057
B(  4-C ,  5-C ) :   1.1397 B(  4-C , 11-H ) :   0.8181 B(  5-C ,  6-N ) :   3.0521

FINAL SINGLE POINT ENERGY      -322.840248211071

DIPOLE MOMENT
-------------
                                X             Y             Z
Electronic contribution:     -3.77915      -0.96415      -4.06606
Nuclear contribution   :      4.57136       1.36590       5.78108
                        -----------------------------------------
Total Dipole Moment    :      0.79221       0.40176       1.71502
                        -----------------------------------------
Magnitude (a.u.)       :      1.93140
Magnitude (Debye)      :      4.90923

                             ****ORCA TERMINATED NORMALLY****
TOTAL RUN TIME: 0 days 0 hours 0 minutes 5 seconds 797 msec
