                         Program Version 3.0.3 - RELEASE   -
|  1> ! RI PBE def2-SVP def2-SVP/J NBO PAL2
|  2> % maxcore 2000
|  3> % output
|  4>     # printlevel mini
|  5>     print[ P_Basis ] 0
|  6>     print[ P_SCFInfo ] 1
|  7>     print[ P_SCFIterInfo ] 1
|  8>     print[ P_OrbEn ] 0
|  9>     print[ P_Cartesian ] 0
| 10> end
| 11> *xyz 0 1
| 12>  O        0.8179260000    -0.0275030000     0.0128800000
| 13>  C        2.2137230000    -0.0274060000     0.0217750000
| 14>  C        2.9814560000     1.0483880000     0.8351090000
| 15>  C        4.0211870000    -0.0273180000     1.1947890000
| 16>  C        2.9816050000    -1.1031420000     0.8350300000
| 17>  C        2.6516020000    -0.0273300000    -1.3755830000
| 18>  N        3.0508460000    -0.0272210000    -2.4531810000
| 19>  H        0.5163910000    -0.0282240000     0.9259300000
| 20>  H        2.3778970000     1.3290100000     1.7025570000
| 21>  H        3.3008210000     1.9491320000     0.3125920000
| 22>  H        4.4096580000    -0.0273350000     2.2120260000
| 23>  H        4.8586900000    -0.0272350000     0.4963360000
| 24>  H        2.3781020000    -1.3839010000     1.7024780000
| 25>  H        3.3010870000    -2.0038140000     0.3124620000
| 26> *
| 27>
| 28>                          ****END OF INPUT****
 Total Charge           Charge          ....    0
 Multiplicity           Mult            ....    1
 Number of Electrons    NEL             ....   52
 Basis Dimension        Dim             ....  133

MULLIKEN ATOMIC CHARGES
-----------------------
   0 O :   -0.197845
   1 C :   -0.264944
   2 C :    0.098345
   3 C :   -0.032555
   4 C :    0.098303
   5 C :   -0.086115
   6 N :    0.063884
   7 H :    0.161817
   8 H :    0.007409
   9 H :    0.036763
  10 H :    0.021246
  11 H :    0.049510
  12 H :    0.007411
  13 H :    0.036771
Sum of atomic charges:   -0.0000000

LOEWDIN ATOMIC CHARGES
----------------------
   0 O :   -0.071549
   1 C :   -0.009958
   2 C :   -0.025054
   3 C :   -0.031735
   4 C :   -0.025055
   5 C :   -0.029389
   6 N :   -0.054097
   7 H :    0.072131
   8 H :    0.028113
   9 H :    0.029411
  10 H :    0.024447
  11 H :    0.035212
  12 H :    0.028110
  13 H :    0.029413

  Mayer bond orders larger than 0.1
B(  0-O ,  1-C ) :   1.2040 B(  0-O ,  7-H ) :   0.9678 B(  1-C ,  2-C ) :   1.0403
B(  1-C ,  4-C ) :   1.0403 B(  1-C ,  5-C ) :   0.9725 B(  2-C ,  3-C ) :   1.1031
B(  2-C ,  8-H ) :   0.9063 B(  2-C ,  9-H ) :   0.9298 B(  3-C ,  4-C ) :   1.1032
B(  3-C , 10-H ) :   0.9256 B(  3-C , 11-H ) :   0.9391 B(  4-C , 12-H ) :   0.9063
B(  4-C , 13-H ) :   0.9298 B(  5-C ,  6-N ) :   3.0893

FINAL SINGLE POINT ENERGY      -324.026152581123

DIPOLE MOMENT
-------------
                                X             Y             Z
Electronic contribution:     -2.59623       0.00021      -5.85307
Nuclear contribution   :      2.53437      -0.00071       7.73885
                        -----------------------------------------
Total Dipole Moment    :     -0.06186      -0.00050       1.88579
                        -----------------------------------------
Magnitude (a.u.)       :      1.88680
Magnitude (Debye)      :      4.79586

                             ****ORCA TERMINATED NORMALLY****
TOTAL RUN TIME: 0 days 0 hours 0 minutes 6 seconds 535 msec
