                         Program Version 3.0.3 - RELEASE   -
|  1> ! RI PBE def2-SVP def2-SVP/J NBO PAL2
|  2> % maxcore 2000
|  3> % output
|  4>     # printlevel mini
|  5>     print[ P_Basis ] 0
|  6>     print[ P_SCFInfo ] 1
|  7>     print[ P_SCFIterInfo ] 1
|  8>     print[ P_OrbEn ] 0
|  9>     print[ P_Cartesian ] 0
| 10> end
| 11> *xyz 0 1
| 12>  O        1.0407520000     0.1203020000     0.1455480000
| 13>  C        2.4301900000     0.0641600000     0.1207260000
| 14>  C        3.1431130000     1.0810490000     1.0102720000
| 15>  C        4.1883810000     0.0000310000     1.3425030000
| 16>  C        3.1467540000    -1.0637920000     0.9209440000
| 17>  C        3.5769800000    -2.2477880000     0.2144600000
| 18>  N        3.9172990000    -3.1695940000    -0.3852060000
| 19>  H        0.6852510000    -0.4502710000    -0.5413180000
| 20>  H        2.8244160000     0.0919340000    -0.9019510000
| 21>  H        2.5177600000     1.3101230000     1.8756910000
| 22>  H        3.4798360000     2.0093750000     0.5509750000
| 23>  H        4.5590320000    -0.0606350000     2.3639990000
| 24>  H        5.0338270000     0.0172820000     0.6543940000
| 25>  H        2.5164200000    -1.3437770000     1.7686720000
| 26> *
| 27>
| 28>                          ****END OF INPUT****
 Total Charge           Charge          ....    0
 Multiplicity           Mult            ....    1
 Number of Electrons    NEL             ....   52
 Basis Dimension        Dim             ....  133

MULLIKEN ATOMIC CHARGES
-----------------------
   0 O :   -0.218799
   1 C :    0.054380
   2 C :    0.067538
   3 C :    0.036579
   4 C :   -0.184057
   5 C :   -0.165273
   6 N :    0.081211
   7 H :    0.166066
   8 H :    0.011868
   9 H :    0.021613
  10 H :    0.022735
  11 H :    0.033235
  12 H :    0.032043
  13 H :    0.040861
Sum of atomic charges:   -0.0000000

LOEWDIN ATOMIC CHARGES
----------------------
   0 O :   -0.092505
   1 C :    0.063442
   2 C :   -0.033865
   3 C :   -0.005372
   4 C :   -0.080069
   5 C :   -0.052464
   6 N :   -0.071530
   7 H :    0.080719
   8 H :    0.016075
   9 H :    0.034647
  10 H :    0.024460
  11 H :    0.027825
  12 H :    0.033890
  13 H :    0.054747

  Mayer bond orders larger than 0.1
B(  0-O ,  1-C ) :   1.1839 B(  0-O ,  7-H ) :   0.9745 B(  1-C ,  2-C ) :   1.0869
B(  1-C ,  4-C ) :   1.0101 B(  1-C ,  8-H ) :   0.9120 B(  2-C ,  3-C ) :   1.1232
B(  2-C ,  9-H ) :   0.9009 B(  2-C , 10-H ) :   0.9320 B(  3-C ,  4-C ) :   1.0974
B(  3-C , 11-H ) :   0.9250 B(  3-C , 12-H ) :   0.9224 B(  4-C ,  5-C ) :   1.1303
B(  4-C , 13-H ) :   0.8170 B(  5-C ,  6-N ) :   3.0502

FINAL SINGLE POINT ENERGY      -324.034455247177

DIPOLE MOMENT
-------------
                                X             Y             Z
Electronic contribution:     -0.85878      -4.96054      -2.00865
Nuclear contribution   :      0.55685       5.99927       2.28700
                        -----------------------------------------
Total Dipole Moment    :     -0.30193       1.03874       0.27834
                        -----------------------------------------
Magnitude (a.u.)       :      1.11696
Magnitude (Debye)      :      2.83910

                             ****ORCA TERMINATED NORMALLY****
TOTAL RUN TIME: 0 days 0 hours 0 minutes 6 seconds 711 msec
