                         Program Version 3.0.3 - RELEASE   -
|  1> ! RI PBE def2-SVP def2-SVP/J NBO PAL2
|  2> % maxcore 2000
|  3> % output
|  4>     # printlevel mini
|  5>     print[ P_Basis ] 0
|  6>     print[ P_SCFInfo ] 1
|  7>     print[ P_SCFIterInfo ] 1
|  8>     print[ P_OrbEn ] 0
|  9>     print[ P_Cartesian ] 0
| 10> end
| 11> *xyz 0 1
| 12>  O        1.8962960000     0.4070310000     1.0425020000
| 13>  C        2.7362130000     0.0178600000     0.2881210000
| 14>  C        2.7951190000    -1.3638820000    -0.3544020000
| 15>  C        4.1268450000    -1.4233410000    -1.0945030000
| 16>  C        4.6167890000     0.0118850000    -1.0877210000
| 17>  C        3.7376380000     1.0686500000    -1.6010410000
| 18>  N        3.8344750000     0.8201870000    -0.1475710000
| 19>  H        1.9256940000    -1.4570080000    -1.0102600000
| 20>  H        2.6827310000    -2.1274720000     0.4155970000
| 21>  H        4.0442110000    -1.8274530000    -2.1054470000
| 22>  H        4.8428070000    -2.0457110000    -0.5540010000
| 23>  H        5.6858600000     0.1905760000    -1.0599120000
| 24>  H        2.8163730000     0.7771800000    -2.0986110000
| 25>  H        4.1436590000     2.0226090000    -1.9156400000
| 26> *
| 27>
| 28>                          ****END OF INPUT****
 Total Charge           Charge          ....    0
 Multiplicity           Mult            ....    1
 Number of Electrons    NEL             ....   52
 Basis Dimension        Dim             ....  133

MULLIKEN ATOMIC CHARGES
-----------------------
   0 O :   -0.119877
   1 C :    0.032489
   2 C :   -0.072298
   3 C :    0.132426
   4 C :   -0.135789
   5 C :    0.084684
   6 N :   -0.218444
   7 H :    0.056021
   8 H :    0.052732
   9 H :    0.026089
  10 H :    0.032195
  11 H :    0.038138
  12 H :    0.042789
  13 H :    0.048847
Sum of atomic charges:    0.0000000

LOEWDIN ATOMIC CHARGES
----------------------
   0 O :   -0.106629
   1 C :    0.044211
   2 C :   -0.075082
   3 C :   -0.042501
   4 C :    0.001264
   5 C :    0.033541
   6 N :   -0.105526
   7 H :    0.049585
   8 H :    0.050755
   9 H :    0.033840
  10 H :    0.036851
  11 H :    0.026887
  12 H :    0.021734
  13 H :    0.031070

  Mayer bond orders larger than 0.1
B(  0-O ,  1-C ) :   2.2415 B(  1-C ,  2-C ) :   0.9602 B(  1-C ,  6-N ) :   1.0288
B(  2-C ,  3-C ) :   1.0858 B(  2-C ,  7-H ) :   0.9138 B(  2-C ,  8-H ) :   0.9128
B(  3-C ,  4-C ) :   1.0491 B(  3-C ,  9-H ) :   0.9193 B(  3-C , 10-H ) :   0.9252
B(  4-C ,  5-C ) :   1.0432 B(  4-C ,  6-N ) :   0.9044 B(  4-C , 11-H ) :   0.9429
B(  5-C ,  6-N ) :   0.9345 B(  5-C , 12-H ) :   0.9336 B(  5-C , 13-H ) :   0.9454

FINAL SINGLE POINT ENERGY      -324.049172649562

DIPOLE MOMENT
-------------
                                X             Y             Z
Electronic contribution:     -1.81900       2.94417       3.91122
Nuclear contribution   :      2.41073      -3.72019      -5.08420
                        -----------------------------------------
Total Dipole Moment    :      0.59173      -0.77601      -1.17299
                        -----------------------------------------
Magnitude (a.u.)       :      1.52586
Magnitude (Debye)      :      3.87842

                             ****ORCA TERMINATED NORMALLY****
TOTAL RUN TIME: 0 days 0 hours 0 minutes 7 seconds 83 msec
