                         Program Version 3.0.3 - RELEASE   -
|  1> ! RI PBE def2-SVP def2-SVP/J NBO PAL2
|  2> % maxcore 2000
|  3> % output
|  4>     # printlevel mini
|  5>     print[ P_Basis ] 0
|  6>     print[ P_SCFInfo ] 1
|  7>     print[ P_SCFIterInfo ] 1
|  8>     print[ P_OrbEn ] 0
|  9>     print[ P_Cartesian ] 0
| 10> end
| 11> *xyz 0 1
| 12>  O        1.3250330000    -0.2132420000     0.2605010000
| 13>  C        2.4657550000     0.1536190000     0.2751120000
| 14>  C        3.0329630000     1.4239770000    -0.2284280000
| 15>  C        4.3641590000     1.3638680000    -0.1591320000
| 16>  C        4.7730720000     0.0778030000     0.4431890000
| 17>  C        4.4096610000    -1.1657750000    -0.2874840000
| 18>  N        3.5574580000    -0.6413800000     0.7782110000
| 19>  H        2.4232680000     2.2064120000    -0.6571860000
| 20>  H        5.0652400000     2.1263210000    -0.4743220000
| 21>  H        5.5771030000     0.0520670000     1.1712560000
| 22>  H        4.9200850000    -2.0941680000    -0.0550920000
| 23>  H        4.0590150000    -1.0584920000    -1.3098230000
| 24> *
| 25>
| 26>                          ****END OF INPUT****
 Total Charge           Charge          ....    0
 Multiplicity           Mult            ....    1
 Number of Electrons    NEL             ....   50
 Basis Dimension        Dim             ....  123

MULLIKEN ATOMIC CHARGES
-----------------------
   0 O :   -0.126594
   1 C :    0.110934
   2 C :   -0.064626
   3 C :    0.067903
   4 C :   -0.048904
   5 C :    0.114061
   6 N :   -0.223155
   7 H :    0.001514
   8 H :    0.013610
   9 H :    0.049830
  10 H :    0.053466
  11 H :    0.051961
Sum of atomic charges:   -0.0000000

LOEWDIN ATOMIC CHARGES
----------------------
   0 O :   -0.115264
   1 C :    0.031205
   2 C :   -0.055913
   3 C :    0.008648
   4 C :   -0.002202
   5 C :    0.058193
   6 N :   -0.087628
   7 H :    0.035637
   8 H :    0.033703
   9 H :    0.035528
  10 H :    0.031473
  11 H :    0.026619

  Mayer bond orders larger than 0.1
B(  0-O ,  1-C ) :   2.1923 B(  1-C ,  2-C ) :   0.9764 B(  1-C ,  6-N ) :   0.9913
B(  2-C ,  3-C ) :   1.6879 B(  2-C ,  7-H ) :   1.0042 B(  3-C ,  4-C ) :   1.0182
B(  3-C ,  8-H ) :   0.9935 B(  4-C ,  5-C ) :   1.0142 B(  4-C ,  6-N ) :   0.9360
B(  4-C ,  9-H ) :   0.9359 B(  5-C ,  6-N ) :   0.9491 B(  5-C , 10-H ) :   0.9440
B(  5-C , 11-H ) :   0.9225

FINAL SINGLE POINT ENERGY      -322.835988146210

DIPOLE MOMENT
-------------
                                X             Y             Z
Electronic contribution:     -3.29257      -0.12185       1.40711
Nuclear contribution   :      4.76924       0.59896      -1.94113
                        -----------------------------------------
Total Dipole Moment    :      1.47667       0.47711      -0.53402
                        -----------------------------------------
Magnitude (a.u.)       :      1.64115
Magnitude (Debye)      :      4.17147

                             ****ORCA TERMINATED NORMALLY****
TOTAL RUN TIME: 0 days 0 hours 0 minutes 6 seconds 196 msec
