                         Program Version 3.0.3 - RELEASE   -
|  1> ! RI PBE def2-SVP def2-SVP/J NBO PAL2
|  2> % maxcore 2000
|  3> % output
|  4>     # printlevel mini
|  5>     print[ P_Basis ] 0
|  6>     print[ P_SCFInfo ] 1
|  7>     print[ P_SCFIterInfo ] 1
|  8>     print[ P_OrbEn ] 0
|  9>     print[ P_Cartesian ] 0
| 10> end
| 11> *xyz 0 1
| 12>  O        1.1093020000     0.3628300000     0.1208510000
| 13>  C        2.4676010000     0.0231320000    -0.1255790000
| 14>  C        2.6768740000    -1.4748550000    -0.3901360000
| 15>  C        2.6551010000    -1.6718130000    -1.9142620000
| 16>  C        2.9950330000    -0.3093480000    -2.4847030000
| 17>  N        1.9440590000     0.6924930000    -2.4969260000
| 18>  C        2.9057230000     0.7091960000    -1.4079720000
| 19>  H        0.8160060000    -0.1185190000     0.8980970000
| 20>  H        3.0858600000     0.3632320000     0.7141830000
| 21>  H        1.9476260000    -2.0915200000     0.1440920000
| 22>  H        3.6656840000    -1.7515920000    -0.0128130000
| 23>  H        1.6765740000    -2.0052690000    -2.2739320000
| 24>  H        3.3781380000    -2.4274750000    -2.2289530000
| 25>  H        3.7115200000    -0.2323680000    -3.2960470000
| 26>  H        1.0634480000     0.3118400000    -2.1615560000
| 27>  H        3.5436610000     1.5845350000    -1.3504550000
| 28> *
| 29>
| 30>                          ****END OF INPUT****
 Total Charge           Charge          ....    0
 Multiplicity           Mult            ....    1
 Number of Electrons    NEL             ....   54
 Basis Dimension        Dim             ....  143

MULLIKEN ATOMIC CHARGES
-----------------------
   0 O :   -0.252044
   1 C :    0.090237
   2 C :    0.047077
   3 C :    0.087514
   4 C :   -0.109751
   5 N :   -0.123076
   6 C :   -0.059257
   7 H :    0.155237
   8 H :   -0.006338
   9 H :   -0.012523
  10 H :    0.009311
  11 H :    0.017806
  12 H :    0.015252
  13 H :    0.019016
  14 H :    0.102355
  15 H :    0.019184
Sum of atomic charges:   -0.0000000

LOEWDIN ATOMIC CHARGES
----------------------
   0 O :   -0.115060
   1 C :    0.038502
   2 C :   -0.048972
   3 C :   -0.045541
   4 C :   -0.002251
   5 N :   -0.072146
   6 C :   -0.009367
   7 H :    0.067800
   8 H :    0.009051
   9 H :    0.017604
  10 H :    0.029713
  11 H :    0.027264
  12 H :    0.029225
  13 H :    0.016463
  14 H :    0.041145
  15 H :    0.016570

  Mayer bond orders larger than 0.1
B(  0-O ,  1-C ) :   1.0739 B(  0-O ,  7-H ) :   0.9767 B(  1-C ,  2-C ) :   1.0457
B(  1-C ,  6-C ) :   1.0061 B(  1-C ,  8-H ) :   0.9258 B(  2-C ,  3-C ) :   1.0867
B(  2-C ,  9-H ) :   0.9158 B(  2-C , 10-H ) :   0.9251 B(  3-C ,  4-C ) :   1.0323
B(  3-C , 11-H ) :   0.9157 B(  3-C , 12-H ) :   0.9322 B(  4-C ,  5-N ) :   1.0183
B(  4-C ,  6-C ) :   1.0001 B(  4-C , 13-H ) :   0.9462 B(  5-N ,  6-C ) :   1.0183
B(  5-N , 14-H ) :   0.9380 B(  6-C , 15-H ) :   0.9532

FINAL SINGLE POINT ENERGY      -325.230759488440

DIPOLE MOMENT
-------------
                                X             Y             Z
Electronic contribution:     -1.39560       3.09203      -0.35321
Nuclear contribution   :      1.64102      -3.94701       1.14034
                        -----------------------------------------
Total Dipole Moment    :      0.24543      -0.85498       0.78713
                        -----------------------------------------
Magnitude (a.u.)       :      1.18777
Magnitude (Debye)      :      3.01908

                             ****ORCA TERMINATED NORMALLY****
TOTAL RUN TIME: 0 days 0 hours 0 minutes 7 seconds 422 msec
