                         Program Version 3.0.3 - RELEASE   -
|  1> ! RI PBE def2-SVP def2-SVP/J NBO PAL2
|  2> % maxcore 2000
|  3> % output
|  4>     # printlevel mini
|  5>     print[ P_Basis ] 0
|  6>     print[ P_SCFInfo ] 1
|  7>     print[ P_SCFIterInfo ] 1
|  8>     print[ P_OrbEn ] 0
|  9>     print[ P_Cartesian ] 0
| 10> end
| 11> *xyz 0 1
| 12>  O        1.6991980000     0.2637610000     1.1753060000
| 13>  C        2.4769640000     0.0548750000     0.2828750000
| 14>  C        2.7106330000    -1.2931980000    -0.3959640000
| 15>  C        4.1144200000    -1.2072770000    -1.0027070000
| 16>  C        4.4103500000     0.2747390000    -1.1075860000
| 17>  N        3.4314850000     1.0970940000    -1.7722230000
| 18>  C        3.4206660000     1.0463630000    -0.3054580000
| 19>  H        1.9272410000    -1.4657150000    -1.1403450000
| 20>  H        2.6046780000    -2.0845160000     0.3458270000
| 21>  H        4.1976110000    -1.7028140000    -1.9737290000
| 22>  H        4.8454740000    -1.6753350000    -0.3385990000
| 23>  H        5.4364950000     0.6137300000    -1.1974740000
| 24>  H        2.6768980000     0.5432840000    -2.1673190000
| 25>  H        3.6222860000     1.9731090000     0.2165860000
| 26> *
| 27>
| 28>                          ****END OF INPUT****
 Total Charge           Charge          ....    0
 Multiplicity           Mult            ....    1
 Number of Electrons    NEL             ....   52
 Basis Dimension        Dim             ....  133

MULLIKEN ATOMIC CHARGES
-----------------------
   0 O :   -0.134742
   1 C :    0.061080
   2 C :   -0.092449
   3 C :    0.130509
   4 C :   -0.089428
   5 N :   -0.123079
   6 C :   -0.073632
   7 H :    0.054795
   8 H :    0.045410
   9 H :    0.022533
  10 H :    0.032763
  11 H :    0.033671
  12 H :    0.109287
  13 H :    0.023281
Sum of atomic charges:    0.0000000

LOEWDIN ATOMIC CHARGES
----------------------
   0 O :   -0.114006
   1 C :    0.036064
   2 C :   -0.075830
   3 C :   -0.042378
   4 C :    0.008336
   5 N :   -0.057446
   6 C :   -0.021280
   7 H :    0.044550
   8 H :    0.047725
   9 H :    0.030777
  10 H :    0.037179
  11 H :    0.025513
  12 H :    0.052399
  13 H :    0.028395

  Mayer bond orders larger than 0.1
B(  0-O ,  1-C ) :   2.2128 B(  1-C ,  2-C ) :   0.9576 B(  1-C ,  6-C ) :   0.9511
B(  2-C ,  3-C ) :   1.0587 B(  2-C ,  7-H ) :   0.9074 B(  2-C ,  8-H ) :   0.9149
B(  3-C ,  4-C ) :   1.0406 B(  3-C ,  9-H ) :   0.9186 B(  3-C , 10-H ) :   0.9236
B(  4-C ,  5-N ) :   1.0062 B(  4-C ,  6-C ) :   0.9105 B(  4-C , 11-H ) :   0.9399
B(  5-N ,  6-C ) :   0.9654 B(  5-N , 12-H ) :   0.9419 B(  6-C , 13-H ) :   0.9650

FINAL SINGLE POINT ENERGY      -324.047783316602

DIPOLE MOMENT
-------------
                                X             Y             Z
Electronic contribution:     -2.39062       2.96946       2.39004
Nuclear contribution   :      2.99647      -3.70624      -2.96442
                        -----------------------------------------
Total Dipole Moment    :      0.60585      -0.73678      -0.57438
                        -----------------------------------------
Magnitude (a.u.)       :      1.11347
Magnitude (Debye)      :      2.83021

                             ****ORCA TERMINATED NORMALLY****
TOTAL RUN TIME: 0 days 0 hours 0 minutes 7 seconds 109 msec
