                         Program Version 3.0.3 - RELEASE   -
|  1> ! RI PBE def2-SVP def2-SVP/J NBO PAL2
|  2> % maxcore 2000
|  3> % output
|  4>     # printlevel mini
|  5>     print[ P_Basis ] 0
|  6>     print[ P_SCFInfo ] 1
|  7>     print[ P_SCFIterInfo ] 1
|  8>     print[ P_OrbEn ] 0
|  9>     print[ P_Cartesian ] 0
| 10> end
| 11> *xyz 0 1
| 12>  O        1.1228840000    -0.2003420000    -0.0952920000
| 13>  C        2.3107020000    -0.0093110000    -0.0815040000
| 14>  C        3.0106170000     1.2835000000     0.1509420000
| 15>  C        4.3212490000     1.1244040000    -0.0482820000
| 16>  C        4.6626640000    -0.2980350000    -0.3447700000
| 17>  N        4.3692000000    -1.2499060000     0.7246980000
| 18>  C        3.3862370000    -1.0398300000    -0.3411010000
| 19>  H        2.4942610000     2.1852530000     0.4506300000
| 20>  H        5.0743720000     1.8987420000     0.0378620000
| 21>  H        5.4973550000    -0.5497260000    -0.9872380000
| 22>  H        4.0969130000    -0.7498380000     1.5671840000
| 23>  H        3.1621460000    -1.8952010000    -0.9655290000
| 24> *
| 25>
| 26>                          ****END OF INPUT****
 Total Charge           Charge          ....    0
 Multiplicity           Mult            ....    1
 Number of Electrons    NEL             ....   50
 Basis Dimension        Dim             ....  123

MULLIKEN ATOMIC CHARGES
-----------------------
   0 O :   -0.125291
   1 C :    0.149848
   2 C :   -0.081634
   3 C :    0.085154
   4 C :   -0.025974
   5 N :   -0.121696
   6 C :   -0.089420
   7 H :    0.003223
   8 H :    0.017533
   9 H :    0.039233
  10 H :    0.112165
  11 H :    0.036859
Sum of atomic charges:   -0.0000000

LOEWDIN ATOMIC CHARGES
----------------------
   0 O :   -0.100955
   1 C :    0.032825
   2 C :   -0.054215
   3 C :    0.013610
   4 C :   -0.003257
   5 N :   -0.051857
   6 C :   -0.018817
   7 H :    0.033007
   8 H :    0.033274
   9 H :    0.030395
  10 H :    0.053032
  11 H :    0.032959

  Mayer bond orders larger than 0.1
B(  0-O ,  1-C ) :   2.1755 B(  1-C ,  2-C ) :   0.9752 B(  1-C ,  6-C ) :   0.9231
B(  2-C ,  3-C ) :   1.6768 B(  2-C ,  7-H ) :   0.9944 B(  3-C ,  4-C ) :   0.9945
B(  3-C ,  8-H ) :   0.9949 B(  4-C ,  5-N ) :   0.9871 B(  4-C ,  6-C ) :   0.9399
B(  4-C ,  9-H ) :   0.9423 B(  5-N ,  6-C ) :   0.9776 B(  5-N , 10-H ) :   0.9386
B(  6-C , 11-H ) :   0.9505

FINAL SINGLE POINT ENERGY      -322.825126409144

DIPOLE MOMENT
-------------
                                X             Y             Z
Electronic contribution:     -2.72479      -0.49052      -0.09872
Nuclear contribution   :      3.64593       1.17494       0.06217
                        -----------------------------------------
Total Dipole Moment    :      0.92114       0.68442      -0.03655
                        -----------------------------------------
Magnitude (a.u.)       :      1.14816
Magnitude (Debye)      :      2.91838

                             ****ORCA TERMINATED NORMALLY****
TOTAL RUN TIME: 0 days 0 hours 0 minutes 5 seconds 919 msec
