                         Program Version 3.0.3 - RELEASE   -
|  1> ! RI PBE def2-SVP def2-SVP/J NBO PAL2
|  2> % maxcore 2000
|  3> % output
|  4>     # printlevel mini
|  5>     print[ P_Basis ] 0
|  6>     print[ P_SCFInfo ] 1
|  7>     print[ P_SCFIterInfo ] 1
|  8>     print[ P_OrbEn ] 0
|  9>     print[ P_Cartesian ] 0
| 10> end
| 11> *xyz 0 1
| 12>  O        1.1020470000    -0.3229570000     0.0233290000
| 13>  C        2.4795890000     0.0122390000    -0.0131520000
| 14>  C        2.8097160000     1.2955440000     0.7163180000
| 15>  C        3.7152660000     1.1016720000     1.6701170000
| 16>  C        4.0780390000    -0.3385440000     1.7730130000
| 17>  N        2.9862090000    -1.2424350000     2.1417090000
| 18>  C        3.2834330000    -1.0365280000     0.7354210000
| 19>  H        0.6088140000     0.3574230000    -0.4418520000
| 20>  H        2.8247640000     0.0587530000    -1.0565020000
| 21>  H        2.3111550000     2.2337370000     0.4976930000
| 22>  H        4.1101700000     1.8630140000     2.3327060000
| 23>  H        5.0705580000    -0.6496920000     2.0765000000
| 24>  H        2.1609180000    -0.7102020000     2.4041600000
| 25>  H        3.6397230000    -1.9069150000     0.1979290000
| 26> *
| 27>
| 28>                          ****END OF INPUT****
 Total Charge           Charge          ....    0
 Multiplicity           Mult            ....    1
 Number of Electrons    NEL             ....   52
 Basis Dimension        Dim             ....  133

MULLIKEN ATOMIC CHARGES
-----------------------
   0 O :   -0.258523
   1 C :    0.211551
   2 C :   -0.083459
   3 C :    0.053258
   4 C :   -0.029983
   5 N :   -0.127780
   6 C :   -0.060567
   7 H :    0.156422
   8 H :    0.009942
   9 H :   -0.011043
  10 H :   -0.005085
  11 H :    0.019620
  12 H :    0.104258
  13 H :    0.021390
Sum of atomic charges:    0.0000000

LOEWDIN ATOMIC CHARGES
----------------------
   0 O :   -0.111107
   1 C :    0.040833
   2 C :   -0.051153
   3 C :   -0.029432
   4 C :   -0.000737
   5 N :   -0.067674
   6 C :   -0.000847
   7 H :    0.070181
   8 H :    0.015718
   9 H :    0.018320
  10 H :    0.025906
  11 H :    0.020598
  12 H :    0.048579
  13 H :    0.020816

  Mayer bond orders larger than 0.1
B(  0-O ,  1-C ) :   1.0637 B(  0-O ,  7-H ) :   0.9797 B(  1-C ,  2-C ) :   0.9639
B(  1-C ,  6-C ) :   1.0066 B(  1-C ,  8-H ) :   0.8971 B(  2-C ,  3-C ) :   1.8079
B(  2-C ,  9-H ) :   0.9693 B(  3-C ,  4-C ) :   0.9833 B(  3-C , 10-H ) :   0.9968
B(  4-C ,  5-N ) :   0.9961 B(  4-C ,  6-C ) :   0.9843 B(  4-C , 11-H ) :   0.9508
B(  5-N ,  6-C ) :   1.0193 B(  5-N , 12-H ) :   0.9385 B(  6-C , 13-H ) :   0.9465

FINAL SINGLE POINT ENERGY      -324.008819008947

DIPOLE MOMENT
-------------
                                X             Y             Z
Electronic contribution:     -0.68806      -0.80260       0.26235
Nuclear contribution   :      0.69349       1.76046      -0.79718
                        -----------------------------------------
Total Dipole Moment    :      0.00543       0.95786      -0.53483
                        -----------------------------------------
Magnitude (a.u.)       :      1.09707
Magnitude (Debye)      :      2.78853

                             ****ORCA TERMINATED NORMALLY****
TOTAL RUN TIME: 0 days 0 hours 0 minutes 6 seconds 642 msec
