                         Program Version 3.0.3 - RELEASE   -
|  1> ! RI PBE def2-SVP def2-SVP/J NBO PAL2
|  2> % maxcore 2000
|  3> % output
|  4>     # printlevel mini
|  5>     print[ P_Basis ] 0
|  6>     print[ P_SCFInfo ] 1
|  7>     print[ P_SCFIterInfo ] 1
|  8>     print[ P_OrbEn ] 0
|  9>     print[ P_Cartesian ] 0
| 10> end
| 11> *xyz 0 1
| 12>  O        1.0729930000    -0.0447540000     0.2525660000
| 13>  C        2.4101950000     0.0660180000     0.1200490000
| 14>  C        3.0421710000     1.3092510000     0.0323720000
| 15>  C        4.4157150000     1.3292790000    -0.1017660000
| 16>  C        5.1113650000     0.1287420000    -0.1442310000
| 17>  C        4.3784480000    -1.0414340000    -0.0482610000
| 18>  N        3.0564770000    -1.0814070000     0.0812740000
| 19>  H        0.6820060000     0.8332720000     0.2721530000
| 20>  H        2.4695590000     2.2301490000     0.0687450000
| 21>  H        4.9391860000     2.2762040000    -0.1726480000
| 22>  H        6.1882080000     0.1000240000    -0.2484590000
| 23>  H        4.8780760000    -2.0061450000    -0.0766040000
| 24> *
| 25>
| 26>                          ****END OF INPUT****
 Total Charge           Charge          ....    0
 Multiplicity           Mult            ....    1
 Number of Electrons    NEL             ....   50
 Basis Dimension        Dim             ....  123

MULLIKEN ATOMIC CHARGES
-----------------------
   0 O :   -0.112060
   1 C :    0.034014
   2 C :   -0.048457
   3 C :    0.065452
   4 C :   -0.032328
   5 C :    0.033300
   6 N :   -0.071361
   7 H :    0.164398
   8 H :   -0.026335
   9 H :   -0.005924
  10 H :   -0.003976
  11 H :    0.003275
Sum of atomic charges:   -0.0000000

LOEWDIN ATOMIC CHARGES
----------------------
   0 O :   -0.007707
   1 C :    0.034975
   2 C :   -0.094640
   3 C :    0.003190
   4 C :   -0.073472
   5 C :    0.021698
   6 N :   -0.080698
   7 H :    0.085691
   8 H :    0.025408
   9 H :    0.032652
  10 H :    0.031505
  11 H :    0.021398

  Mayer bond orders larger than 0.1
B(  0-O ,  1-C ) :   1.2543 B(  0-O ,  7-H ) :   0.9633 B(  1-C ,  2-C ) :   1.2769
B(  1-C ,  6-N ) :   1.5226 B(  2-C ,  3-C ) :   1.4502 B(  2-C ,  8-H ) :   0.9528
B(  3-C ,  4-C ) :   1.3883 B(  3-C ,  9-H ) :   0.9711 B(  4-C ,  5-C ) :   1.3943
B(  4-C , 10-H ) :   0.9709 B(  5-C ,  6-N ) :   1.5255 B(  5-C , 11-H ) :   0.9684

FINAL SINGLE POINT ENERGY      -322.892495138867

DIPOLE MOMENT
-------------
                                X             Y             Z
Electronic contribution:     -2.36533      -1.57353       0.25989
Nuclear contribution   :      2.55937       2.76284      -0.30728
                        -----------------------------------------
Total Dipole Moment    :      0.19405       1.18931      -0.04739
                        -----------------------------------------
Magnitude (a.u.)       :      1.20596
Magnitude (Debye)      :      3.06531

                             ****ORCA TERMINATED NORMALLY****
TOTAL RUN TIME: 0 days 0 hours 0 minutes 5 seconds 737 msec
