                         Program Version 3.0.3 - RELEASE   -
|  1> ! RI PBE def2-SVP def2-SVP/J NBO PAL2
|  2> % maxcore 2000
|  3> % output
|  4>     # printlevel mini
|  5>     print[ P_Basis ] 0
|  6>     print[ P_SCFInfo ] 1
|  7>     print[ P_SCFIterInfo ] 1
|  8>     print[ P_OrbEn ] 0
|  9>     print[ P_Cartesian ] 0
| 10> end
| 11> *xyz 0 1
| 12>  O        1.3473960000     0.0566860000     0.8804690000
| 13>  C        2.3515170000    -0.0270930000     0.1997040000
| 14>  C        3.0149080000    -1.3587610000    -0.0785820000
| 15>  C        3.9667240000    -1.3617760000    -1.2644240000
| 16>  C        4.8786890000    -0.1497550000    -1.1946080000
| 17>  C        4.0536410000     1.1198910000    -1.2536920000
| 18>  N        2.9598070000     1.0778470000    -0.3048900000
| 19>  H        2.2140230000    -2.0920510000    -0.1835820000
| 20>  H        3.5531090000    -1.6223500000     0.8391410000
| 21>  H        3.3975430000    -1.3335060000    -2.2008250000
| 22>  H        4.5469850000    -2.2878740000    -1.2795350000
| 23>  H        5.5984030000    -0.1445650000    -2.0168940000
| 24>  H        5.4514720000    -0.1732890000    -0.2609400000
| 25>  H        3.6678660000     1.2552540000    -2.2740060000
| 26>  H        4.6768400000     1.9902710000    -1.0293600000
| 27>  H        2.4606770000     1.9331810000    -0.1142660000
| 28> *
| 29>
| 30>                          ****END OF INPUT****
 Total Charge           Charge          ....    0
 Multiplicity           Mult            ....    1
 Number of Electrons    NEL             ....   54
 Basis Dimension        Dim             ....  143

MULLIKEN ATOMIC CHARGES
-----------------------
   0 O :   -0.217029
   1 C :   -0.007549
   2 C :    0.001930
   3 C :   -0.002583
   4 C :   -0.057509
   5 C :    0.140864
   6 N :   -0.146896
   7 H :    0.033142
   8 H :    0.039444
   9 H :    0.012937
  10 H :    0.010939
  11 H :    0.026262
  12 H :    0.022108
  13 H :    0.013758
  14 H :    0.017768
  15 H :    0.112415
Sum of atomic charges:   -0.0000000

LOEWDIN ATOMIC CHARGES
----------------------
   0 O :   -0.201619
   1 C :    0.021848
   2 C :   -0.066730
   3 C :   -0.043010
   4 C :   -0.046732
   5 C :    0.026944
   6 N :   -0.006472
   7 H :    0.043041
   8 H :    0.045551
   9 H :    0.025398
  10 H :    0.028053
  11 H :    0.032941
  12 H :    0.027410
  13 H :    0.016114
  14 H :    0.024618
  15 H :    0.072646

  Mayer bond orders larger than 0.1
B(  0-O ,  1-C ) :   2.0987 B(  1-C ,  2-C ) :   0.9764 B(  1-C ,  6-N ) :   1.2049
B(  2-C ,  3-C ) :   1.0696 B(  2-C ,  7-H ) :   0.9202 B(  2-C ,  8-H ) :   0.9154
B(  3-C ,  4-C ) :   1.0852 B(  3-C ,  9-H ) :   0.9382 B(  3-C , 10-H ) :   0.9216
B(  4-C ,  5-C ) :   1.0979 B(  4-C , 11-H ) :   0.9323 B(  4-C , 12-H ) :   0.9342
B(  5-C ,  6-N ) :   0.9885 B(  5-C , 13-H ) :   0.9309 B(  5-C , 14-H ) :   0.9373
B(  6-N , 15-H ) :   0.9137

FINAL SINGLE POINT ENERGY      -325.306599089949

DIPOLE MOMENT
-------------
                                X             Y             Z
Electronic contribution:     -5.04601       1.88125       3.52151
Nuclear contribution   :      6.23211      -1.64578      -4.40384
                        -----------------------------------------
Total Dipole Moment    :      1.18610       0.23546      -0.88233
                        -----------------------------------------
Magnitude (a.u.)       :      1.49693
Magnitude (Debye)      :      3.80489

                             ****ORCA TERMINATED NORMALLY****
TOTAL RUN TIME: 0 days 0 hours 0 minutes 7 seconds 864 msec
