                         Program Version 3.0.3 - RELEASE   -
|  1> ! RI PBE def2-SVP def2-SVP/J NBO PAL2
|  2> % maxcore 2000
|  3> % output
|  4>     # printlevel mini
|  5>     print[ P_Basis ] 0
|  6>     print[ P_SCFInfo ] 1
|  7>     print[ P_SCFIterInfo ] 1
|  8>     print[ P_OrbEn ] 0
|  9>     print[ P_Cartesian ] 0
| 10> end
| 11> *xyz 0 1
| 12>  O        0.8340580000     0.0659780000    -0.0630500000
| 13>  C        2.0485550000     0.0088730000    -0.0636270000
| 14>  C        2.7688340000    -1.3188590000    -0.0611260000
| 15>  C        4.2567680000    -1.2430160000    -0.0623730000
| 16>  C        4.9187710000    -0.0961310000    -0.0653210000
| 17>  C        4.2498620000     1.2311440000    -0.0677090000
| 18>  N        2.8109730000     1.1278740000    -0.0666120000
| 19>  H        2.4003370000    -1.8782140000    -0.9280190000
| 20>  H        2.4016070000    -1.8742460000     0.8088550000
| 21>  H        4.8042810000    -2.1807100000    -0.0607470000
| 22>  H        6.0035610000    -0.0809180000    -0.0661270000
| 23>  H        4.5808250000     1.8023860000    -0.9463670000
| 24>  H        4.5819150000     1.8060880000     0.8081220000
| 25>  H        2.2743510000     1.9816530000    -0.0681900000
| 26> *
| 27>
| 28>                          ****END OF INPUT****
 Total Charge           Charge          ....    0
 Multiplicity           Mult            ....    1
 Number of Electrons    NEL             ....   52
 Basis Dimension        Dim             ....  133

MULLIKEN ATOMIC CHARGES
-----------------------
   0 O :   -0.217529
   1 C :    0.003648
   2 C :    0.046630
   3 C :   -0.033632
   4 C :   -0.160028
   5 C :    0.219071
   6 N :   -0.144384
   7 H :    0.050365
   8 H :    0.050293
   9 H :   -0.001995
  10 H :    0.011567
  11 H :    0.030819
  12 H :    0.030895
  13 H :    0.114280
Sum of atomic charges:   -0.0000000

LOEWDIN ATOMIC CHARGES
----------------------
   0 O :   -0.201196
   1 C :    0.027087
   2 C :   -0.068396
   3 C :   -0.037804
   4 C :   -0.057794
   5 C :    0.026001
   6 N :    0.002081
   7 H :    0.054559
   8 H :    0.054545
   9 H :    0.028227
  10 H :    0.032866
  11 H :    0.032281
  12 H :    0.032297
  13 H :    0.075246

  Mayer bond orders larger than 0.1
B(  0-O ,  1-C ) :   2.0937 B(  1-C ,  2-C ) :   0.9663 B(  1-C ,  6-N ) :   1.2222
B(  2-C ,  3-C ) :   1.0272 B(  2-C ,  7-H ) :   0.8977 B(  2-C ,  8-H ) :   0.8977
B(  3-C ,  4-C ) :   1.9146 B(  3-C ,  9-H ) :   0.9571 B(  4-C ,  5-C ) :   1.0412
B(  4-C , 10-H ) :   0.9605 B(  5-C ,  6-N ) :   1.0072 B(  5-C , 11-H ) :   0.9138
B(  5-C , 12-H ) :   0.9138 B(  6-N , 13-H ) :   0.9122

FINAL SINGLE POINT ENERGY      -324.087851241375

DIPOLE MOMENT
-------------
                                X             Y             Z
Electronic contribution:     -3.76445       0.67884       0.00078
Nuclear contribution   :      5.11470      -0.34952      -0.00231
                        -----------------------------------------
Total Dipole Moment    :      1.35024       0.32932      -0.00153
                        -----------------------------------------
Magnitude (a.u.)       :      1.38982
Magnitude (Debye)      :      3.53265

                             ****ORCA TERMINATED NORMALLY****
TOTAL RUN TIME: 0 days 0 hours 0 minutes 6 seconds 965 msec
