                         Program Version 3.0.3 - RELEASE   -
|  1> ! RI PBE def2-SVP def2-SVP/J NBO PAL2
|  2> % maxcore 2000
|  3> % output
|  4>     # printlevel mini
|  5>     print[ P_Basis ] 0
|  6>     print[ P_SCFInfo ] 1
|  7>     print[ P_SCFIterInfo ] 1
|  8>     print[ P_OrbEn ] 0
|  9>     print[ P_Cartesian ] 0
| 10> end
| 11> *xyz 0 1
| 12>  O        0.8465290000    -0.0406250000     0.4312940000
| 13>  C        2.0262730000     0.0001770000     0.1611020000
| 14>  C        2.7615270000     1.2640870000    -0.2208070000
| 15>  C        4.2286000000     1.2772670000     0.1963970000
| 16>  C        4.8842550000    -0.0251170000    -0.1401290000
| 17>  C        4.1601990000    -1.1405360000    -0.1525310000
| 18>  N        2.7938090000    -1.1339490000     0.1162600000
| 19>  H        2.2017730000     2.1055050000     0.1864660000
| 20>  H        2.6919570000     1.3273140000    -1.3140510000
| 21>  H        4.3098270000     1.4614140000     1.2765050000
| 22>  H        4.7407610000     2.1109370000    -0.2898600000
| 23>  H        5.9455970000    -0.0737450000    -0.3443430000
| 24>  H        4.5829020000    -2.1155820000    -0.3605010000
| 25>  H        2.3036910000    -1.9999570000     0.2711080000
| 26> *
| 27>
| 28>                          ****END OF INPUT****
 Total Charge           Charge          ....    0
 Multiplicity           Mult            ....    1
 Number of Electrons    NEL             ....   52
 Basis Dimension        Dim             ....  133

MULLIKEN ATOMIC CHARGES
-----------------------
   0 O :   -0.185124
   1 C :    0.014369
   2 C :   -0.023286
   3 C :    0.075786
   4 C :   -0.138507
   5 C :    0.076885
   6 N :   -0.069429
   7 H :    0.023512
   8 H :    0.051542
   9 H :    0.038270
  10 H :    0.012245
  11 H :    0.004574
  12 H :    0.001812
  13 H :    0.117352
Sum of atomic charges:   -0.0000000

LOEWDIN ATOMIC CHARGES
----------------------
   0 O :   -0.172996
   1 C :    0.034994
   2 C :   -0.062115
   3 C :   -0.039510
   4 C :   -0.088448
   5 C :   -0.002647
   6 N :    0.030374
   7 H :    0.041260
   8 H :    0.048805
   9 H :    0.037451
  10 H :    0.034981
  11 H :    0.029877
  12 H :    0.026480
  13 H :    0.081495

  Mayer bond orders larger than 0.1
B(  0-O ,  1-C ) :   2.1409 B(  1-C ,  2-C ) :   0.9870 B(  1-C ,  6-N ) :   1.1397
B(  2-C ,  3-C ) :   1.0728 B(  2-C ,  7-H ) :   0.9158 B(  2-C ,  8-H ) :   0.9131
B(  3-C ,  4-C ) :   1.0464 B(  3-C ,  9-H ) :   0.9249 B(  3-C , 10-H ) :   0.9114
B(  4-C ,  5-C ) :   1.8297 B(  4-C , 11-H ) :   0.9625 B(  5-C ,  6-N ) :   1.0978
B(  5-C , 12-H ) :   0.9582 B(  6-N , 13-H ) :   0.9135

FINAL SINGLE POINT ENERGY      -324.095582871246

DIPOLE MOMENT
-------------
                                X             Y             Z
Electronic contribution:     -3.97949      -2.73557       0.70247
Nuclear contribution   :      5.03062       2.44293      -0.94428
                        -----------------------------------------
Total Dipole Moment    :      1.05113      -0.29264      -0.24181
                        -----------------------------------------
Magnitude (a.u.)       :      1.11758
Magnitude (Debye)      :      2.84066

                             ****ORCA TERMINATED NORMALLY****
TOTAL RUN TIME: 0 days 0 hours 0 minutes 7 seconds 8 msec
