                         Program Version 3.0.3 - RELEASE   -
|  1> ! RI PBE def2-SVP def2-SVP/J NBO PAL2
|  2> % maxcore 2000
|  3> % output
|  4>     # printlevel mini
|  5>     print[ P_Basis ] 0
|  6>     print[ P_SCFInfo ] 1
|  7>     print[ P_SCFIterInfo ] 1
|  8>     print[ P_OrbEn ] 0
|  9>     print[ P_Cartesian ] 0
| 10> end
| 11> *xyz 0 1
| 12>  O        0.9360620000     0.1935150000    -0.3309230000
| 13>  N        2.2800360000     0.1351000000    -0.1120410000
| 14>  C        3.1158070000     1.2221430000    -0.1165230000
| 15>  C        4.3877600000     0.7345420000    -0.0041900000
| 16>  C        4.3195180000    -0.6850570000     0.0608230000
| 17>  C        2.9909260000    -1.0179510000    -0.0224410000
| 18>  O        2.3094240000    -2.1799240000    -0.0023090000
| 19>  H        0.5218930000     0.0424390000     0.5283250000
| 20>  H        2.7176410000     2.2173810000    -0.2130610000
| 21>  H        5.2852330000     1.3312100000     0.0312540000
| 22>  H        5.1422120000    -1.3752280000     0.1650060000
| 23>  H        2.9432860000    -2.8988700000     0.0566880000
| 24> *
| 25>
| 26>                          ****END OF INPUT****
 Total Charge           Charge          ....    0
 Multiplicity           Mult            ....    1
 Number of Electrons    NEL             ....   52
 Basis Dimension        Dim             ....  123

MULLIKEN ATOMIC CHARGES
-----------------------
   0 O :   -0.164755
   1 N :   -0.067725
   2 C :    0.071910
   3 C :   -0.015378
   4 C :   -0.127193
   5 C :    0.158884
   6 O :   -0.154096
   7 H :    0.189768
   8 H :   -0.011544
   9 H :   -0.020640
  10 H :   -0.041587
  11 H :    0.182355
Sum of atomic charges:   -0.0000000

LOEWDIN ATOMIC CHARGES
----------------------
   0 O :   -0.036879
   1 N :    0.112935
   2 C :   -0.059069
   3 C :   -0.080211
   4 C :   -0.151866
   5 C :   -0.001241
   6 O :   -0.031478
   7 H :    0.086439
   8 H :    0.019865
   9 H :    0.023990
  10 H :    0.019004
  11 H :    0.098511

  Mayer bond orders larger than 0.1
B(  0-O ,  1-N ) :   0.9470 B(  0-O ,  7-H ) :   0.9681 B(  1-N ,  2-C ) :   1.1391
B(  1-N ,  5-C ) :   1.1876 B(  2-C ,  3-C ) :   1.4820 B(  2-C ,  8-H ) :   0.9930
B(  3-C ,  4-C ) :   1.2592 B(  3-C ,  9-H ) :   0.9984 B(  4-C ,  5-C ) :   1.4013
B(  4-C , 10-H ) :   1.0060 B(  5-C ,  6-O ) :   1.2330 B(  6-O , 11-H ) :   0.9661

FINAL SINGLE POINT ENERGY      -359.876041135688

DIPOLE MOMENT
-------------
                                X             Y             Z
Electronic contribution:     -2.53751      -1.12829      -0.31697
Nuclear contribution   :      2.35941       0.64354       0.87651
                        -----------------------------------------
Total Dipole Moment    :     -0.17810      -0.48475       0.55954
                        -----------------------------------------
Magnitude (a.u.)       :      0.76144
Magnitude (Debye)      :      1.93542

                             ****ORCA TERMINATED NORMALLY****
TOTAL RUN TIME: 0 days 0 hours 0 minutes 5 seconds 665 msec
