                         Program Version 3.0.3 - RELEASE   -
|  1> ! RI PBE def2-SVP def2-SVP/J NBO PAL2
|  2> % maxcore 2000
|  3> % output
|  4>     # printlevel mini
|  5>     print[ P_Basis ] 0
|  6>     print[ P_SCFInfo ] 1
|  7>     print[ P_SCFIterInfo ] 1
|  8>     print[ P_OrbEn ] 0
|  9>     print[ P_Cartesian ] 0
| 10> end
| 11> *xyz 0 1
| 12>  O        0.9275350000    -0.1105360000     0.0307060000
| 13>  C        2.2756850000    -0.0332270000    -0.0605920000
| 14>  C        2.9749920000     1.1608630000    -0.1445010000
| 15>  C        4.3564300000     1.1108690000    -0.2339340000
| 16>  C        4.9834760000    -0.1244670000    -0.2360920000
| 17>  N        4.3162420000    -1.2716530000    -0.1557800000
| 18>  C        2.9971380000    -1.2259860000    -0.0703290000
| 19>  H        0.5521120000     0.7745820000     0.0271710000
| 20>  H        2.4492810000     2.1116710000    -0.1399890000
| 21>  H        4.9385100000     2.0223300000    -0.3011690000
| 22>  H        6.0645780000    -0.1963900000    -0.3050380000
| 23>  H        2.4613220000    -2.1690470000    -0.0051420000
| 24> *
| 25>
| 26>                          ****END OF INPUT****
 Total Charge           Charge          ....    0
 Multiplicity           Mult            ....    1
 Number of Electrons    NEL             ....   50
 Basis Dimension        Dim             ....  123

MULLIKEN ATOMIC CHARGES
-----------------------
   0 O :   -0.147733
   1 C :    0.062790
   2 C :    0.012568
   3 C :   -0.013037
   4 C :    0.009338
   5 N :   -0.069743
   6 C :    0.005880
   7 H :    0.168067
   8 H :   -0.021670
   9 H :   -0.008234
  10 H :    0.004237
  11 H :   -0.002462
Sum of atomic charges:    0.0000000

LOEWDIN ATOMIC CHARGES
----------------------
   0 O :   -0.019322
   1 C :    0.012337
   2 C :   -0.060853
   3 C :   -0.036407
   4 C :   -0.017232
   5 N :   -0.054374
   6 C :   -0.014653
   7 H :    0.087342
   8 H :    0.028036
   9 H :    0.032118
  10 H :    0.020006
  11 H :    0.023001

  Mayer bond orders larger than 0.1
B(  0-O ,  1-C ) :   1.2218 B(  0-O ,  7-H ) :   0.9641 B(  1-C ,  2-C ) :   1.3392
B(  1-C ,  6-C ) :   1.3165 B(  2-C ,  3-C ) :   1.4033 B(  2-C ,  8-H ) :   0.9717
B(  3-C ,  4-C ) :   1.3944 B(  3-C ,  9-H ) :   0.9608 B(  4-C ,  5-N ) :   1.5271
B(  4-C , 10-H ) :   0.9696 B(  5-N ,  6-C ) :   1.5798 B(  6-C , 11-H ) :   0.9646

FINAL SINGLE POINT ENERGY      -322.884505661681

DIPOLE MOMENT
-------------
                                X             Y             Z
Electronic contribution:     -1.04400      -1.46919       0.11313
Nuclear contribution   :      0.46811       2.69188      -0.11633
                        -----------------------------------------
Total Dipole Moment    :     -0.57589       1.22269      -0.00320
                        -----------------------------------------
Magnitude (a.u.)       :      1.35153
Magnitude (Debye)      :      3.43532

                             ****ORCA TERMINATED NORMALLY****
TOTAL RUN TIME: 0 days 0 hours 0 minutes 5 seconds 484 msec
