                         Program Version 3.0.3 - RELEASE   -
|  1> ! RI PBE def2-SVP def2-SVP/J NBO PAL2
|  2> % maxcore 2000
|  3> % output
|  4>     # printlevel mini
|  5>     print[ P_Basis ] 0
|  6>     print[ P_SCFInfo ] 1
|  7>     print[ P_SCFIterInfo ] 1
|  8>     print[ P_OrbEn ] 0
|  9>     print[ P_Cartesian ] 0
| 10> end
| 11> *xyz 0 1
| 12>  O        1.0998470000     0.0423120000     0.0947510000
| 13>  C        2.5169690000    -0.0475990000     0.0446520000
| 14>  C        2.9831780000    -1.4524700000    -0.3215640000
| 15>  C        2.5888610000    -1.8183670000    -1.7467700000
| 16>  C        3.0495980000    -0.7372900000    -2.7195000000
| 17>  N        2.6023870000     0.5988520000    -2.3635060000
| 18>  C        2.9756430000     0.9522880000    -1.0087970000
| 19>  H        0.7708600000    -0.6429290000     0.6818460000
| 20>  H        2.9425440000     0.2404110000     1.0174300000
| 21>  H        2.5829950000    -2.1785840000     0.3961970000
| 22>  H        4.0744830000    -1.4885390000    -0.2174440000
| 23>  H        1.5002620000    -1.9179170000    -1.8123200000
| 24>  H        3.0155260000    -2.7879870000    -2.0228260000
| 25>  H        2.7104150000    -0.9608520000    -3.7346590000
| 26>  H        4.1472740000    -0.7218400000    -2.7524530000
| 27>  H        1.5934230000     0.6496630000    -2.4455880000
| 28>  H        2.5643090000     1.9367430000    -0.7719200000
| 29>  H        4.0680350000     1.0342030000    -0.9579180000
| 30> *
| 31>
| 32>                          ****END OF INPUT****
 Total Charge           Charge          ....    0
 Multiplicity           Mult            ....    1
 Number of Electrons    NEL             ....   56
 Basis Dimension        Dim             ....  153

MULLIKEN ATOMIC CHARGES
-----------------------
   0 O :   -0.267206
   1 C :    0.038078
   2 C :   -0.012004
   3 C :    0.016551
   4 C :    0.074634
   5 N :   -0.232944
   6 C :    0.127407
   7 H :    0.151667
   8 H :   -0.014941
   9 H :    0.002335
  10 H :    0.004227
  11 H :    0.001019
  12 H :   -0.000416
  13 H :    0.004540
  14 H :   -0.001468
  15 H :    0.099791
  16 H :    0.008246
  17 H :    0.000482
Sum of atomic charges:    0.0000000

LOEWDIN ATOMIC CHARGES
----------------------
   0 O :   -0.120546
   1 C :    0.028512
   2 C :   -0.060699
   3 C :   -0.060420
   4 C :    0.006944
   5 N :   -0.092138
   6 C :    0.002365
   7 H :    0.067000
   8 H :    0.003326
   9 H :    0.018756
  10 H :    0.026534
  11 H :    0.018684
  12 H :    0.022890
  13 H :    0.020760
  14 H :    0.018581
  15 H :    0.053355
  16 H :    0.024507
  17 H :    0.021588

  Mayer bond orders larger than 0.1
B(  0-O ,  1-C ) :   1.0565 B(  0-O ,  7-H ) :   0.9789 B(  1-C ,  2-C ) :   1.0614
B(  1-C ,  6-C ) :   1.0262 B(  1-C ,  8-H ) :   0.9116 B(  2-C ,  3-C ) :   1.0698
B(  2-C ,  9-H ) :   0.9274 B(  2-C , 10-H ) :   0.9194 B(  3-C ,  4-C ) :   1.0788
B(  3-C , 11-H ) :   0.9218 B(  3-C , 12-H ) :   0.9208 B(  4-C ,  5-N ) :   1.1005
B(  4-C , 13-H ) :   0.9409 B(  4-C , 14-H ) :   0.9258 B(  5-N ,  6-C ) :   1.1058
B(  5-N , 15-H ) :   0.9445 B(  6-C , 16-H ) :   0.9313 B(  6-C , 17-H ) :   0.9253

FINAL SINGLE POINT ENERGY      -326.463293736970

DIPOLE MOMENT
-------------
                                X             Y             Z
Electronic contribution:     -2.23029       2.19269       0.74157
Nuclear contribution   :      2.20407      -2.82251      -0.25872
                        -----------------------------------------
Total Dipole Moment    :     -0.02622      -0.62982       0.48285
                        -----------------------------------------
Magnitude (a.u.)       :      0.79404
Magnitude (Debye)      :      2.01830

                             ****ORCA TERMINATED NORMALLY****
TOTAL RUN TIME: 0 days 0 hours 0 minutes 7 seconds 973 msec
