                         Program Version 3.0.3 - RELEASE   -
|  1> ! RI PBE def2-SVP def2-SVP/J NBO PAL2
|  2> % maxcore 2000
|  3> % output
|  4>     # printlevel mini
|  5>     print[ P_Basis ] 0
|  6>     print[ P_SCFInfo ] 1
|  7>     print[ P_SCFIterInfo ] 1
|  8>     print[ P_OrbEn ] 0
|  9>     print[ P_Cartesian ] 0
| 10> end
| 11> *xyz 0 1
| 12>  O        1.1209190000     0.1405420000     0.3567460000
| 13>  C        2.3072210000     0.0863800000     0.1440780000
| 14>  C        3.0608830000    -1.2186560000     0.0432060000
| 15>  C        4.0545800000    -1.2269890000    -1.1182540000
| 16>  C        4.8898490000     0.0465900000    -1.1241990000
| 17>  N        4.0934680000     1.2603150000    -1.1402320000
| 18>  C        3.1582790000     1.3310380000    -0.0280660000
| 19>  H        2.3406220000    -2.0365090000    -0.0102790000
| 20>  H        3.6137720000    -1.3281500000     0.9864960000
| 21>  H        3.5072310000    -1.2988910000    -2.0652950000
| 22>  H        4.6967980000    -2.1116020000    -1.0593330000
| 23>  H        5.5614200000     0.0611890000    -1.9866280000
| 24>  H        5.5260730000     0.0763720000    -0.2303670000
| 25>  H        3.5845710000     1.3255050000    -2.0141700000
| 26>  H        2.5003680000     2.1941100000    -0.1392340000
| 27>  H        3.7323370000     1.4738350000     0.8984310000
| 28> *
| 29>
| 30>                          ****END OF INPUT****
 Total Charge           Charge          ....    0
 Multiplicity           Mult            ....    1
 Number of Electrons    NEL             ....   54
 Basis Dimension        Dim             ....  143

MULLIKEN ATOMIC CHARGES
-----------------------
   0 O :   -0.154331
   1 C :   -0.112445
   2 C :    0.059771
   3 C :   -0.013798
   4 C :    0.055252
   5 N :   -0.232702
   6 C :    0.161448
   7 H :    0.019702
   8 H :    0.028103
   9 H :    0.009637
  10 H :    0.011936
  11 H :    0.022294
  12 H :    0.008987
  13 H :    0.099181
  14 H :    0.017337
  15 H :    0.019629
Sum of atomic charges:   -0.0000000

LOEWDIN ATOMIC CHARGES
----------------------
   0 O :   -0.119065
   1 C :    0.036277
   2 C :   -0.066465
   3 C :   -0.053901
   4 C :    0.004325
   5 N :   -0.084613
   6 C :   -0.015472
   7 H :    0.034060
   8 H :    0.044201
   9 H :    0.022624
  10 H :    0.027349
  11 H :    0.027090
  12 H :    0.020679
  13 H :    0.055506
  14 H :    0.031831
  15 H :    0.035573

  Mayer bond orders larger than 0.1
B(  0-O ,  1-C ) :   2.1946 B(  1-C ,  2-C ) :   0.9924 B(  1-C ,  6-C ) :   0.9526
B(  2-C ,  3-C ) :   1.0649 B(  2-C ,  7-H ) :   0.9170 B(  2-C ,  8-H ) :   0.9086
B(  3-C ,  4-C ) :   1.0690 B(  3-C ,  9-H ) :   0.9307 B(  3-C , 10-H ) :   0.9169
B(  4-C ,  5-N ) :   1.0870 B(  4-C , 11-H ) :   0.9412 B(  4-C , 12-H ) :   0.9334
B(  5-N ,  6-C ) :   1.0706 B(  5-N , 13-H ) :   0.9474 B(  6-C , 14-H ) :   0.9228
B(  6-C , 15-H ) :   0.9023

FINAL SINGLE POINT ENERGY      -325.269285133858

DIPOLE MOMENT
-------------
                                X             Y             Z
Electronic contribution:     -4.74501       1.75083       1.43596
Nuclear contribution   :      5.57431      -2.08451      -1.77757
                        -----------------------------------------
Total Dipole Moment    :      0.82930      -0.33368      -0.34162
                        -----------------------------------------
Magnitude (a.u.)       :      0.95696
Magnitude (Debye)      :      2.43241

                             ****ORCA TERMINATED NORMALLY****
TOTAL RUN TIME: 0 days 0 hours 0 minutes 7 seconds 401 msec
