                         Program Version 3.0.3 - RELEASE   -
|  1> ! RI PBE def2-SVP def2-SVP/J NBO PAL2
|  2> % maxcore 2000
|  3> % output
|  4>     # printlevel mini
|  5>     print[ P_Basis ] 0
|  6>     print[ P_SCFInfo ] 1
|  7>     print[ P_SCFIterInfo ] 1
|  8>     print[ P_OrbEn ] 0
|  9>     print[ P_Cartesian ] 0
| 10> end
| 11> *xyz 0 1
| 12>  O        1.0262390000    -0.1871600000    -0.1172770000
| 13>  C        2.3551510000    -0.0632650000     0.0420750000
| 14>  C        2.9909180000     1.1778360000     0.1202870000
| 15>  C        4.3524510000     1.1590620000     0.2833010000
| 16>  C        4.9721110000    -0.0842530000     0.3554210000
| 17>  N        4.3053820000    -1.2237970000     0.2736690000
| 18>  N        2.9993520000    -1.2150240000     0.1172870000
| 19>  H        0.6236220000     0.6847990000    -0.1640140000
| 20>  H        2.4323800000     2.1060620000     0.0549560000
| 21>  H        4.9271080000     2.0749730000     0.3536510000
| 22>  H        6.0442760000    -0.1804230000     0.4836520000
| 23> *
| 24>
| 25>                          ****END OF INPUT****
 Total Charge           Charge          ....    0
 Multiplicity           Mult            ....    1
 Number of Electrons    NEL             ....   50
 Basis Dimension        Dim             ....  118

MULLIKEN ATOMIC CHARGES
-----------------------
   0 O :   -0.104763
   1 C :    0.048351
   2 C :   -0.015515
   3 C :    0.021561
   4 C :    0.020469
   5 N :   -0.069917
   6 N :   -0.068675
   7 H :    0.168553
   8 H :   -0.015907
   9 H :    0.004695
  10 H :    0.011148
Sum of atomic charges:    0.0000000

LOEWDIN ATOMIC CHARGES
----------------------
   0 O :    0.002787
   1 C :    0.015455
   2 C :   -0.066575
   3 C :   -0.013223
   4 C :   -0.033686
   5 N :   -0.028011
   6 N :   -0.062405
   7 H :    0.088975
   8 H :    0.030936
   9 H :    0.037656
  10 H :    0.028092

  Mayer bond orders larger than 0.1
B(  0-O ,  1-C ) :   1.2679 B(  0-O ,  7-H ) :   0.9605 B(  1-C ,  2-C ) :   1.2401
B(  1-C ,  6-N ) :   1.5230 B(  2-C ,  3-C ) :   1.4509 B(  2-C ,  8-H ) :   0.9687
B(  3-C ,  4-C ) :   1.2950 B(  3-C ,  9-H ) :   0.9719 B(  4-C ,  5-N ) :   1.5833
B(  4-C , 10-H ) :   0.9827 B(  5-N ,  6-N ) :   1.2897

FINAL SINGLE POINT ENERGY      -338.874760011793

DIPOLE MOMENT
-------------
                                X             Y             Z
Electronic contribution:     -1.25982      -2.57674      -0.15196
Nuclear contribution   :      1.06142       4.62081       0.13486
                        -----------------------------------------
Total Dipole Moment    :     -0.19840       2.04407      -0.01710
                        -----------------------------------------
Magnitude (a.u.)       :      2.05375
Magnitude (Debye)      :      5.22021

                             ****ORCA TERMINATED NORMALLY****
TOTAL RUN TIME: 0 days 0 hours 0 minutes 5 seconds 355 msec
