                         Program Version 3.0.3 - RELEASE   -
|  1> ! RI PBE def2-SVP def2-SVP/J NBO PAL2
|  2> % maxcore 2000
|  3> % output
|  4>     # printlevel mini
|  5>     print[ P_Basis ] 0
|  6>     print[ P_SCFInfo ] 1
|  7>     print[ P_SCFIterInfo ] 1
|  8>     print[ P_OrbEn ] 0
|  9>     print[ P_Cartesian ] 0
| 10> end
| 11> *xyz 0 1
| 12>  O        1.5785810000     0.2627080000     1.1244200000
| 13>  C        2.4540460000     0.1475400000     0.2895900000
| 14>  C        3.0223140000    -1.2043420000    -0.0886020000
| 15>  C        4.0850070000    -1.1967500000    -1.1813510000
| 16>  C        4.9043960000     0.0784500000    -1.0900620000
| 17>  N        4.0639610000     1.2562260000    -1.2194760000
| 18>  N        3.0142680000     1.2402720000    -0.2911970000
| 19>  H        2.1783380000    -1.8521100000    -0.3337130000
| 20>  H        3.4344450000    -1.5955830000     0.8469980000
| 21>  H        3.6156890000    -1.2372450000    -2.1708320000
| 22>  H        4.7209250000    -2.0829810000    -1.1007070000
| 23>  H        5.6579960000     0.1305270000    -1.8793790000
| 24>  H        5.4257920000     0.1390450000    -0.1289840000
| 25>  H        3.6565860000     1.2606090000    -2.1512500000
| 26>  H        2.7660660000     2.1342240000     0.1036550000
| 27> *
| 28>
| 29>                          ****END OF INPUT****
 Total Charge           Charge          ....    0
 Multiplicity           Mult            ....    1
 Number of Electrons    NEL             ....   54
 Basis Dimension        Dim             ....  138

MULLIKEN ATOMIC CHARGES
-----------------------
   0 O :   -0.212462
   1 C :    0.007788
   2 C :   -0.017868
   3 C :   -0.001399
   4 C :    0.044244
   5 N :   -0.120838
   6 N :   -0.094016
   7 H :    0.042515
   8 H :    0.045196
   9 H :    0.006388
  10 H :    0.012619
  11 H :    0.028384
  12 H :    0.027725
  13 H :    0.109121
  14 H :    0.122602
Sum of atomic charges:    0.0000000

LOEWDIN ATOMIC CHARGES
----------------------
   0 O :   -0.199128
   1 C :    0.010087
   2 C :   -0.069859
   3 C :   -0.062523
   4 C :    0.000361
   5 N :   -0.037762
   6 N :    0.032766
   7 H :    0.047514
   8 H :    0.049653
   9 H :    0.021549
  10 H :    0.029822
  11 H :    0.029597
  12 H :    0.025223
  13 H :    0.051497
  14 H :    0.071203

  Mayer bond orders larger than 0.1
B(  0-O ,  1-C ) :   2.0943 B(  0-O ,  6-N ) :   0.1045 B(  1-C ,  2-C ) :   0.9806
B(  1-C ,  6-N ) :   1.1837 B(  2-C ,  3-C ) :   1.0522 B(  2-C ,  7-H ) :   0.9172
B(  2-C ,  8-H ) :   0.9204 B(  3-C ,  4-C ) :   1.0745 B(  3-C ,  9-H ) :   0.9328
B(  3-C , 10-H ) :   0.9136 B(  4-C ,  5-N ) :   1.0703 B(  4-C , 11-H ) :   0.9407
B(  4-C , 12-H ) :   0.9398 B(  5-N ,  6-N ) :   0.9815 B(  5-N , 13-H ) :   0.9422
B(  6-N , 14-H ) :   0.9207

FINAL SINGLE POINT ENERGY      -341.290088222228

DIPOLE MOMENT
-------------
                                X             Y             Z
Electronic contribution:     -3.87155       3.44782       2.71943
Nuclear contribution   :      4.76129      -3.64006      -3.75888
                        -----------------------------------------
Total Dipole Moment    :      0.88974      -0.19224      -1.03945
                        -----------------------------------------
Magnitude (a.u.)       :      1.38168
Magnitude (Debye)      :      3.51196

                             ****ORCA TERMINATED NORMALLY****
TOTAL RUN TIME: 0 days 0 hours 0 minutes 6 seconds 716 msec
