                         Program Version 3.0.3 - RELEASE   -
|  1> ! RI PBE def2-SVP def2-SVP/J NBO PAL2
|  2> % maxcore 2000
|  3> % output
|  4>     # printlevel mini
|  5>     print[ P_Basis ] 0
|  6>     print[ P_SCFInfo ] 1
|  7>     print[ P_SCFIterInfo ] 1
|  8>     print[ P_OrbEn ] 0
|  9>     print[ P_Cartesian ] 0
| 10> end
| 11> *xyz 0 1
| 12>  O        0.9148880000    -0.0214970000     0.3994040000
| 13>  C        2.0977830000     0.0665690000     0.1613510000
| 14>  C        2.8020920000     1.3482220000    -0.2017950000
| 15>  C        4.2757450000     1.3093280000     0.1718210000
| 16>  C        4.8672940000    -0.0012800000    -0.2288770000
| 17>  N        4.2189350000    -1.0954710000    -0.2260210000
| 18>  N        2.9093170000    -1.0387660000     0.1557080000
| 19>  H        2.2684940000     2.1731530000     0.2689470000
| 20>  H        2.6868030000     1.4653690000    -1.2857150000
| 21>  H        4.3930330000     1.4187180000     1.2588350000
| 22>  H        4.8232460000     2.1376010000    -0.2819640000
| 23>  H        5.9108110000    -0.0760880000    -0.5188500000
| 24>  H        2.4549370000    -1.9356770000     0.2223770000
| 25> *
| 26>
| 27>                          ****END OF INPUT****
 Total Charge           Charge          ....    0
 Multiplicity           Mult            ....    1
 Number of Electrons    NEL             ....   52
 Basis Dimension        Dim             ....  128

MULLIKEN ATOMIC CHARGES
-----------------------
   0 O :   -0.177008
   1 C :    0.033568
   2 C :   -0.016587
   3 C :    0.029758
   4 C :   -0.083845
   5 N :   -0.046100
   6 N :   -0.061383
   7 H :    0.031829
   8 H :    0.056631
   9 H :    0.054761
  10 H :    0.022846
  11 H :    0.025122
  12 H :    0.130409
Sum of atomic charges:    0.0000000

LOEWDIN ATOMIC CHARGES
----------------------
   0 O :   -0.165667
   1 C :    0.022530
   2 C :   -0.062155
   3 C :   -0.062446
   4 C :   -0.032991
   5 N :   -0.040473
   6 N :    0.051460
   7 H :    0.046497
   8 H :    0.051005
   9 H :    0.048298
  10 H :    0.039852
  11 H :    0.025258
  12 H :    0.078832

  Mayer bond orders larger than 0.1
B(  0-O ,  1-C ) :   2.1454 B(  1-C ,  2-C ) :   0.9860 B(  1-C ,  6-N ) :   1.1110
B(  2-C ,  3-C ) :   1.0761 B(  2-C ,  7-H ) :   0.9105 B(  2-C ,  8-H ) :   0.9127
B(  3-C ,  4-C ) :   1.0152 B(  3-C ,  9-H ) :   0.9150 B(  3-C , 10-H ) :   0.9126
B(  4-C ,  5-N ) :   1.9193 B(  4-C , 11-H ) :   0.9651 B(  5-N ,  6-N ) :   1.0368
B(  6-N , 12-H ) :   0.9244

FINAL SINGLE POINT ENERGY      -340.097609561402

DIPOLE MOMENT
-------------
                                X             Y             Z
Electronic contribution:     -2.68567      -3.89172       0.40667
Nuclear contribution   :      3.56616       4.40729      -0.53457
                        -----------------------------------------
Total Dipole Moment    :      0.88048       0.51557      -0.12790
                        -----------------------------------------
Magnitude (a.u.)       :      1.02831
Magnitude (Debye)      :      2.61376

                             ****ORCA TERMINATED NORMALLY****
TOTAL RUN TIME: 0 days 0 hours 0 minutes 5 seconds 853 msec
