                         Program Version 3.0.3 - RELEASE   -
|  1> ! RI PBE def2-SVP def2-SVP/J NBO PAL2
|  2> % maxcore 2000
|  3> % output
|  4>     # printlevel mini
|  5>     print[ P_Basis ] 0
|  6>     print[ P_SCFInfo ] 1
|  7>     print[ P_SCFIterInfo ] 1
|  8>     print[ P_OrbEn ] 0
|  9>     print[ P_Cartesian ] 0
| 10> end
| 11> *xyz 0 1
| 12>  O        1.0889220000    -0.0429850000    -0.2387210000
| 13>  C        2.2662590000     0.0796690000    -0.0696930000
| 14>  O        3.0276200000    -1.0726740000     0.0359080000
| 15>  N        4.3761390000    -1.0904080000     0.2289700000
| 16>  C        4.9757370000     0.0395900000     0.3182160000
| 17>  C        4.3221090000     1.3099360000     0.2284060000
| 18>  C        2.9959850000     1.3295680000     0.0385430000
| 19>  H        6.0460830000    -0.0398530000     0.4712670000
| 20>  H        4.9042900000     2.2201990000     0.3145100000
| 21>  H        2.4140560000     2.2384700000    -0.0420850000
| 22> *
| 23>
| 24>                          ****END OF INPUT****
 Total Charge           Charge          ....    0
 Multiplicity           Mult            ....    1
 Number of Electrons    NEL             ....   50
 Basis Dimension        Dim             ....  113

MULLIKEN ATOMIC CHARGES
-----------------------
   0 O :   -0.139817
   1 C :    0.191967
   2 O :   -0.182130
   3 N :    0.078881
   4 C :   -0.040082
   5 C :    0.069267
   6 C :   -0.066187
   7 H :    0.039718
   8 H :    0.020506
   9 H :    0.027877
Sum of atomic charges:   -0.0000000

LOEWDIN ATOMIC CHARGES
----------------------
   0 O :   -0.117525
   1 C :    0.023837
   2 O :    0.000623
   3 N :    0.033906
   4 C :   -0.039896
   5 C :   -0.010294
   6 C :   -0.025226
   7 H :    0.042375
   8 H :    0.043403
   9 H :    0.048796

  Mayer bond orders larger than 0.1
B(  0-O ,  1-C ) :   2.1480 B(  1-C ,  2-O ) :   0.9992 B(  1-C ,  6-C ) :   1.0506
B(  2-O ,  3-N ) :   0.9898 B(  3-N ,  4-C ) :   1.8343 B(  3-N ,  6-C ) :   0.1095
B(  4-C ,  5-C ) :   1.0998 B(  4-C ,  7-H ) :   0.9644 B(  5-C ,  6-C ) :   1.6326
B(  5-C ,  8-H ) :   0.9690 B(  6-C ,  9-H ) :   0.9809

FINAL SINGLE POINT ENERGY      -358.698799164811

DIPOLE MOMENT
-------------
                                X             Y             Z
Electronic contribution:     -2.07377      -2.64198      -0.30127
Nuclear contribution   :      3.36126       3.99200       0.49333
                        -----------------------------------------
Total Dipole Moment    :      1.28749       1.35001       0.19205
                        -----------------------------------------
Magnitude (a.u.)       :      1.87538
Magnitude (Debye)      :      4.76685

                             ****ORCA TERMINATED NORMALLY****
TOTAL RUN TIME: 0 days 0 hours 0 minutes 5 seconds 418 msec
