                         Program Version 3.0.3 - RELEASE   -
|  1> ! RI PBE def2-SVP def2-SVP/J NBO PAL2
|  2> % maxcore 2000
|  3> % output
|  4>     # printlevel mini
|  5>     print[ P_Basis ] 0
|  6>     print[ P_SCFInfo ] 1
|  7>     print[ P_SCFIterInfo ] 1
|  8>     print[ P_OrbEn ] 0
|  9>     print[ P_Cartesian ] 0
| 10> end
| 11> *xyz 0 1
| 12>  O        1.0465530000    -0.1622380000     0.4739110000
| 13>  C        2.1810160000    -0.0711310000     0.1169280000
| 14>  C        2.8573390000     1.1944240000    -0.3177810000
| 15>  C        4.3122190000     1.1921530000     0.1144250000
| 16>  C        4.8997740000    -0.1131120000    -0.2863880000
| 17>  N        4.2722650000    -1.2119940000    -0.3516300000
| 18>  O        2.9346640000    -1.2080960000     0.0761700000
| 19>  H        2.2882500000     2.0318970000     0.0820810000
| 20>  H        2.7925030000     1.2379670000    -1.4105960000
| 21>  H        4.3982260000     1.3089830000     1.2016400000
| 22>  H        4.8686960000     2.0159880000    -0.3353960000
| 23>  H        5.9419960000    -0.1940420000    -0.5833740000
| 24> *
| 25>
| 26>                          ****END OF INPUT****
 Total Charge           Charge          ....    0
 Multiplicity           Mult            ....    1
 Number of Electrons    NEL             ....   52
 Basis Dimension        Dim             ....  123

MULLIKEN ATOMIC CHARGES
-----------------------
   0 O :   -0.135305
   1 C :    0.117755
   2 C :   -0.043594
   3 C :    0.029797
   4 C :   -0.082389
   5 N :    0.040809
   6 O :   -0.191468
   7 H :    0.041690
   8 H :    0.072669
   9 H :    0.068723
  10 H :    0.035101
  11 H :    0.046212
Sum of atomic charges:   -0.0000000

LOEWDIN ATOMIC CHARGES
----------------------
   0 O :   -0.108095
   1 C :    0.037484
   2 C :   -0.069522
   3 C :   -0.057167
   4 C :   -0.026573
   5 N :    0.012531
   6 O :   -0.033026
   7 H :    0.049666
   8 H :    0.056809
   9 H :    0.054196
  10 H :    0.044976
  11 H :    0.038722

  Mayer bond orders larger than 0.1
B(  0-O ,  1-C ) :   2.1870 B(  1-C ,  2-C ) :   0.9940 B(  1-C ,  6-O ) :   1.0745
B(  2-C ,  3-C ) :   1.0683 B(  2-C ,  7-H ) :   0.9153 B(  2-C ,  8-H ) :   0.9162
B(  3-C ,  4-C ) :   1.0058 B(  3-C ,  9-H ) :   0.9149 B(  3-C , 10-H ) :   0.9136
B(  4-C ,  5-N ) :   1.9613 B(  4-C , 11-H ) :   0.9550 B(  5-N ,  6-O ) :   0.9078

FINAL SINGLE POINT ENERGY      -359.903380005170

DIPOLE MOMENT
-------------
                                X             Y             Z
Electronic contribution:     -2.89516      -4.80835       0.63077
Nuclear contribution   :      4.08688       6.26411      -0.89580
                        -----------------------------------------
Total Dipole Moment    :      1.19171       1.45576      -0.26503
                        -----------------------------------------
Magnitude (a.u.)       :      1.89991
Magnitude (Debye)      :      4.82919

                             ****ORCA TERMINATED NORMALLY****
TOTAL RUN TIME: 0 days 0 hours 0 minutes 5 seconds 890 msec
