                         Program Version 3.0.3 - RELEASE   -
|  1> ! RI PBE def2-SVP def2-SVP/J NBO PAL2
|  2> % maxcore 2000
|  3> % output
|  4>     # printlevel mini
|  5>     print[ P_Basis ] 0
|  6>     print[ P_SCFInfo ] 1
|  7>     print[ P_SCFIterInfo ] 1
|  8>     print[ P_OrbEn ] 0
|  9>     print[ P_Cartesian ] 0
| 10> end
| 11> *xyz 0 1
| 12>  O        1.3581950000     0.1845640000     1.0018810000
| 13>  C        2.3627570000     0.0428920000     0.3385160000
| 14>  C        2.9522570000    -1.3082360000     0.0045150000
| 15>  C        3.9922670000    -1.2920770000    -1.1099750000
| 16>  C        4.8277350000    -0.0355550000    -1.0151790000
| 17>  O        3.9861930000     1.0981710000    -1.1128080000
| 18>  N        3.1169580000     1.1260280000    -0.0175730000
| 19>  H        2.1199560000    -1.9792010000    -0.2108990000
| 20>  H        3.3971930000    -1.6615940000     0.9412240000
| 21>  H        3.5008120000    -1.3033700000    -2.0868500000
| 22>  H        4.6282180000    -2.1796750000    -1.0558820000
| 23>  H        5.5205510000     0.0604770000    -1.8523320000
| 24>  H        5.3925930000     0.0057750000    -0.0744570000
| 25>  H        2.6734940000     2.0304890000     0.0462300000
| 26> *
| 27>
| 28>                          ****END OF INPUT****
 Total Charge           Charge          ....    0
 Multiplicity           Mult            ....    1
 Number of Electrons    NEL             ....   54
 Basis Dimension        Dim             ....  133

MULLIKEN ATOMIC CHARGES
-----------------------
   0 O :   -0.196993
   1 C :    0.010783
   2 C :   -0.018369
   3 C :   -0.007824
   4 C :    0.156384
   5 O :   -0.289009
   6 N :    0.033856
   7 H :    0.041407
   8 H :    0.052590
   9 H :    0.025035
  10 H :    0.018077
  11 H :    0.033500
  12 H :    0.013952
  13 H :    0.126610
Sum of atomic charges:   -0.0000000

LOEWDIN ATOMIC CHARGES
----------------------
   0 O :   -0.178328
   1 C :    0.008077
   2 C :   -0.066472
   3 C :   -0.060449
   4 C :    0.053601
   5 O :   -0.108640
   6 N :    0.075912
   7 H :    0.047054
   8 H :    0.051311
   9 H :    0.030828
  10 H :    0.033320
  11 H :    0.030865
  12 H :    0.010028
  13 H :    0.072893

  Mayer bond orders larger than 0.1
B(  0-O ,  1-C ) :   2.0959 B(  0-O ,  6-N ) :   0.1114 B(  1-C ,  2-C ) :   0.9787
B(  1-C ,  6-N ) :   1.1498 B(  2-C ,  3-C ) :   1.0599 B(  2-C ,  7-H ) :   0.9185
B(  2-C ,  8-H ) :   0.9240 B(  3-C ,  4-C ) :   1.0856 B(  3-C ,  9-H ) :   0.9304
B(  3-C , 10-H ) :   0.9178 B(  4-C ,  5-O ) :   0.9835 B(  4-C , 11-H ) :   0.9392
B(  4-C , 12-H ) :   0.9377 B(  5-O ,  6-N ) :   0.9120 B(  6-N , 13-H ) :   0.9213

FINAL SINGLE POINT ENERGY      -361.103239028874

DIPOLE MOMENT
-------------
                                X             Y             Z
Electronic contribution:     -3.34297       4.35911       1.65067
Nuclear contribution   :      4.33157      -4.69657      -2.21696
                        -----------------------------------------
Total Dipole Moment    :      0.98859      -0.33746      -0.56630
                        -----------------------------------------
Magnitude (a.u.)       :      1.18823
Magnitude (Debye)      :      3.02023

                             ****ORCA TERMINATED NORMALLY****
TOTAL RUN TIME: 0 days 0 hours 0 minutes 6 seconds 559 msec
