                         Program Version 3.0.3 - RELEASE   -
|  1> ! RI PBE def2-SVP def2-SVP/J NBO PAL2
|  2> % maxcore 2000
|  3> % output
|  4>     # printlevel mini
|  5>     print[ P_Basis ] 0
|  6>     print[ P_SCFInfo ] 1
|  7>     print[ P_SCFIterInfo ] 1
|  8>     print[ P_OrbEn ] 0
|  9>     print[ P_Cartesian ] 0
| 10> end
| 11> *xyz 0 1
| 12>  O        1.3914250000    -0.1777660000     0.7085160000
| 13>  C        2.4648710000    -0.0395910000     0.1896550000
| 14>  C        3.1982820000     1.2550040000    -0.1016830000
| 15>  C        4.5066150000     0.8398890000    -0.7667160000
| 16>  C        4.4666480000    -0.6745810000    -0.8261160000
| 17>  O        5.2977160000    -1.4167770000    -1.2722840000
| 18>  N        3.2696530000    -1.0693830000    -0.2594170000
| 19>  H        3.3353180000     1.7920790000     0.8382700000
| 20>  H        2.5624400000     1.8766070000    -0.7341420000
| 21>  H        5.3961350000     1.1396970000    -0.2103350000
| 22>  H        4.6224570000     1.2213190000    -1.7825070000
| 23>  H        3.0026500000    -2.0391950000    -0.1793400000
| 24> *
| 25>
| 26>                          ****END OF INPUT****
 Total Charge           Charge          ....    0
 Multiplicity           Mult            ....    1
 Number of Electrons    NEL             ....   52
 Basis Dimension        Dim             ....  123

MULLIKEN ATOMIC CHARGES
-----------------------
   0 O :   -0.148099
   1 C :    0.038490
   2 C :   -0.037762
   3 C :   -0.009340
   4 C :    0.039697
   5 O :   -0.150334
   6 N :   -0.093259
   7 H :    0.061377
   8 H :    0.061097
   9 H :    0.054715
  10 H :    0.055724
  11 H :    0.127694
Sum of atomic charges:   -0.0000000

LOEWDIN ATOMIC CHARGES
----------------------
   0 O :   -0.141849
   1 C :    0.040889
   2 C :   -0.065389
   3 C :   -0.061569
   4 C :    0.040839
   5 O :   -0.142421
   6 N :    0.030209
   7 H :    0.053198
   8 H :    0.052888
   9 H :    0.051908
  10 H :    0.052192
  11 H :    0.089107

  Mayer bond orders larger than 0.1
B(  0-O ,  1-C ) :   2.1985 B(  1-C ,  2-C ) :   0.9753 B(  1-C ,  6-N ) :   1.0899
B(  2-C ,  3-C ) :   1.0841 B(  2-C ,  7-H ) :   0.9095 B(  2-C ,  8-H ) :   0.9108
B(  3-C ,  4-C ) :   0.9772 B(  3-C ,  9-H ) :   0.9100 B(  3-C , 10-H ) :   0.9096
B(  4-C ,  5-O ) :   2.1944 B(  4-C ,  6-N ) :   1.0886 B(  6-N , 11-H ) :   0.9155

FINAL SINGLE POINT ENERGY      -360.000348979539

DIPOLE MOMENT
-------------
                                X             Y             Z
Electronic contribution:     -1.11197      -4.03382       0.33427
Nuclear contribution   :      1.28370       4.66266      -0.38498
                        -----------------------------------------
Total Dipole Moment    :      0.17173       0.62884      -0.05071
                        -----------------------------------------
Magnitude (a.u.)       :      0.65384
Magnitude (Debye)      :      1.66193

                             ****ORCA TERMINATED NORMALLY****
TOTAL RUN TIME: 0 days 0 hours 0 minutes 6 seconds 192 msec
