                         Program Version 3.0.3 - RELEASE   -
|  1> ! RI PBE def2-SVP def2-SVP/J NBO PAL2
|  2> % maxcore 2000
|  3> % output
|  4>     # printlevel mini
|  5>     print[ P_Basis ] 0
|  6>     print[ P_SCFInfo ] 1
|  7>     print[ P_SCFIterInfo ] 1
|  8>     print[ P_OrbEn ] 0
|  9>     print[ P_Cartesian ] 0
| 10> end
| 11> *xyz 0 1
| 12>  O        0.9295480000    -0.1851610000     0.0515920000
| 13>  C        2.2691400000     0.0078750000     0.0587710000
| 14>  C        3.0681190000     1.1104520000     0.0627720000
| 15>  C        4.4261690000     0.6369540000     0.0701860000
| 16>  C        4.3664530000    -0.7233750000     0.0702220000
| 17>  O        5.2956450000    -1.7074460000     0.0754310000
| 18>  N        3.0557720000    -1.1092880000     0.0633060000
| 19>  H        0.5010000000     0.6738340000     0.0494920000
| 20>  H        2.7429120000     2.1389170000     0.0607330000
| 21>  H        5.3203040000     1.2402830000     0.0748060000
| 22>  H        6.1653520000    -1.3011010000     0.0803970000
| 23>  H        2.7251960000    -2.0574440000     0.0618020000
| 24> *
| 25>
| 26>                          ****END OF INPUT****
 Total Charge           Charge          ....    0
 Multiplicity           Mult            ....    1
 Number of Electrons    NEL             ....   52
 Basis Dimension        Dim             ....  123

MULLIKEN ATOMIC CHARGES
-----------------------
   0 O :   -0.166321
   1 C :    0.136316
   2 C :   -0.127923
   3 C :   -0.122075
   4 C :    0.135170
   5 O :   -0.166861
   6 N :   -0.076360
   7 H :    0.179134
   8 H :   -0.041254
   9 H :   -0.041402
  10 H :    0.178151
  11 H :    0.113423
Sum of atomic charges:   -0.0000000

LOEWDIN ATOMIC CHARGES
----------------------
   0 O :   -0.044586
   1 C :    0.008997
   2 C :   -0.153043
   3 C :   -0.152529
   4 C :    0.008688
   5 O :   -0.044726
   6 N :    0.066938
   7 H :    0.095191
   8 H :    0.017602
   9 H :    0.017800
  10 H :    0.094872
  11 H :    0.084796

  Mayer bond orders larger than 0.1
B(  0-O ,  1-C ) :   1.2204 B(  0-O ,  7-H ) :   0.9677 B(  1-C ,  2-C ) :   1.4675
B(  1-C ,  6-N ) :   1.1659 B(  2-C ,  3-C ) :   1.1589 B(  2-C ,  8-H ) :   1.0162
B(  3-C ,  4-C ) :   1.4733 B(  3-C ,  9-H ) :   1.0139 B(  4-C ,  5-O ) :   1.2181
B(  4-C ,  6-N ) :   1.1653 B(  5-O , 10-H ) :   0.9675 B(  6-N , 11-H ) :   0.9272

FINAL SINGLE POINT ENERGY      -359.935772900697

DIPOLE MOMENT
-------------
                                X             Y             Z
Electronic contribution:     -0.74086      -2.11870      -0.00349
Nuclear contribution   :      0.75942       2.17817       0.00422
                        -----------------------------------------
Total Dipole Moment    :      0.01856       0.05947       0.00072
                        -----------------------------------------
Magnitude (a.u.)       :      0.06230
Magnitude (Debye)      :      0.15837

                             ****ORCA TERMINATED NORMALLY****
TOTAL RUN TIME: 0 days 0 hours 0 minutes 5 seconds 806 msec
