                         Program Version 3.0.3 - RELEASE   -
|  1> ! RI PBE def2-SVP def2-SVP/J NBO PAL2
|  2> % maxcore 2000
|  3> % output
|  4>     # printlevel mini
|  5>     print[ P_Basis ] 0
|  6>     print[ P_SCFInfo ] 1
|  7>     print[ P_SCFIterInfo ] 1
|  8>     print[ P_OrbEn ] 0
|  9>     print[ P_Cartesian ] 0
| 10> end
| 11> *xyz 0 1
| 12>  O        1.3760310000    -0.1682870000     1.0283120000
| 13>  C        2.4045340000    -0.0929920000     0.4219910000
| 14>  C        3.3393940000     1.0371630000    -0.0267130000
| 15>  C        4.2092340000    -0.0884150000    -0.6552460000
| 16>  N        3.2181350000    -1.0324840000    -0.1461300000
| 17>  C        4.3738370000    -0.0611250000    -2.0975810000
| 18>  C        4.5224790000    -0.0412740000    -3.2882690000
| 19>  H        3.8095560000     1.5907300000     0.7848190000
| 20>  H        2.8937700000     1.7202380000    -0.7476310000
| 21>  H        5.1865040000    -0.1977680000    -0.1746980000
| 22>  H        3.1195540000    -2.0280770000    -0.2705460000
| 23>  H        4.6489820000    -0.0220090000    -4.3452180000
| 24> *
| 25>
| 26>                          ****END OF INPUT****
 Total Charge           Charge          ....    0
 Multiplicity           Mult            ....    1
 Number of Electrons    NEL             ....   50
 Basis Dimension        Dim             ....  123

MULLIKEN ATOMIC CHARGES
-----------------------
   0 O :   -0.158542
   1 C :    0.079976
   2 C :    0.029000
   3 C :   -0.008810
   4 N :   -0.165103
   5 C :    0.441748
   6 C :   -0.476369
   7 H :    0.048452
   8 H :    0.045034
   9 H :    0.046546
  10 H :    0.109440
  11 H :    0.008628
Sum of atomic charges:   -0.0000000

LOEWDIN ATOMIC CHARGES
----------------------
   0 O :   -0.151891
   1 C :    0.023544
   2 C :   -0.035176
   3 C :    0.024971
   4 N :    0.002473
   5 C :   -0.035309
   6 C :   -0.061298
   7 H :    0.041658
   8 H :    0.045997
   9 H :    0.039466
  10 H :    0.067165
  11 H :    0.038401

  Mayer bond orders larger than 0.1
B(  0-O ,  1-C ) :   2.1813 B(  0-O ,  4-N ) :   0.1131 B(  1-C ,  2-C ) :   0.9358
B(  1-C ,  4-N ) :   1.1612 B(  2-C ,  3-C ) :   1.0806 B(  2-C ,  7-H ) :   0.9118
B(  2-C ,  8-H ) :   0.9007 B(  3-C ,  4-N ) :   1.0431 B(  3-C ,  5-C ) :   0.9509
B(  3-C ,  9-H ) :   0.8853 B(  4-N , 10-H ) :   0.9402 B(  5-C ,  6-C ) :   2.3161
B(  5-C , 11-H ) :  -0.1107 B(  6-C , 11-H ) :   1.1008

FINAL SINGLE POINT ENERGY      -322.807907563360

DIPOLE MOMENT
-------------
                                X             Y             Z
Electronic contribution:     -1.88270      -1.48882       0.94550
Nuclear contribution   :      2.96021       1.33768      -1.56195
                        -----------------------------------------
Total Dipole Moment    :      1.07751      -0.15114      -0.61645
                        -----------------------------------------
Magnitude (a.u.)       :      1.25055
Magnitude (Debye)      :      3.17866

                             ****ORCA TERMINATED NORMALLY****
TOTAL RUN TIME: 0 days 0 hours 0 minutes 6 seconds 142 msec
