                         Program Version 3.0.3 - RELEASE   -
|  1> ! RI PBE def2-SVP def2-SVP/J NBO PAL2
|  2> % maxcore 2000
|  3> % output
|  4>     # printlevel mini
|  5>     print[ P_Basis ] 0
|  6>     print[ P_SCFInfo ] 1
|  7>     print[ P_SCFIterInfo ] 1
|  8>     print[ P_OrbEn ] 0
|  9>     print[ P_Cartesian ] 0
| 10> end
| 11> *xyz 0 1
| 12>  O        1.2626630000    -0.0230670000     0.9202950000
| 13>  C        2.3137190000     0.0552820000     0.3612840000
| 14>  C        3.2766290000     1.1857430000    -0.0271760000
| 15>  C        4.1735180000     0.0568770000    -0.6061480000
| 16>  N        3.1500960000    -0.8837680000    -0.1854850000
| 17>  C        4.4188570000     0.1086570000    -2.0432260000
| 18>  N        4.6249860000     0.1462320000    -3.1733850000
| 19>  H        3.7071650000     1.7287320000     0.8124260000
| 20>  H        2.8767480000     1.8779740000    -0.7660410000
| 21>  H        5.1302020000    -0.0624590000    -0.0896380000
| 22>  H        3.0783270000    -1.8840940000    -0.2909050000
| 23> *
| 24>
| 25>                          ****END OF INPUT****
 Total Charge           Charge          ....    0
 Multiplicity           Mult            ....    1
 Number of Electrons    NEL             ....   50
 Basis Dimension        Dim             ....  118

MULLIKEN ATOMIC CHARGES
-----------------------
   0 O :   -0.142663
   1 C :    0.090434
   2 C :    0.026021
   3 C :   -0.051208
   4 N :   -0.164637
   5 C :   -0.134286
   6 N :    0.074527
   7 H :    0.060977
   8 H :    0.057772
   9 H :    0.064220
  10 H :    0.118842
Sum of atomic charges:    0.0000000

LOEWDIN ATOMIC CHARGES
----------------------
   0 O :   -0.135821
   1 C :    0.028291
   2 C :   -0.029730
   3 C :    0.011625
   4 N :    0.005917
   5 C :   -0.054945
   6 N :   -0.043971
   7 H :    0.046989
   8 H :    0.051338
   9 H :    0.047548
  10 H :    0.072758

  Mayer bond orders larger than 0.1
B(  0-O ,  1-C ) :   2.1973 B(  0-O ,  4-N ) :   0.1109 B(  1-C ,  2-C ) :   0.9351
B(  1-C ,  4-N ) :   1.1427 B(  2-C ,  3-C ) :   1.1010 B(  2-C ,  7-H ) :   0.9146
B(  2-C ,  8-H ) :   0.8982 B(  3-C ,  4-N ) :   1.0922 B(  3-C ,  5-C ) :   1.0338
B(  3-C ,  9-H ) :   0.8815 B(  4-N , 10-H ) :   0.9397 B(  5-C ,  6-N ) :   3.0739

FINAL SINGLE POINT ENERGY      -338.883840358051

DIPOLE MOMENT
-------------
                                X             Y             Z
Electronic contribution:     -0.79934      -1.42207      -1.34341
Nuclear contribution   :      1.57758       1.24372       2.05945
                        -----------------------------------------
Total Dipole Moment    :      0.77824      -0.17834       0.71605
                        -----------------------------------------
Magnitude (a.u.)       :      1.07246
Magnitude (Debye)      :      2.72599

                             ****ORCA TERMINATED NORMALLY****
TOTAL RUN TIME: 0 days 0 hours 0 minutes 5 seconds 481 msec
