                         Program Version 3.0.3 - RELEASE   -
|  1> ! RI PBE def2-SVP def2-SVP/J NBO PAL2
|  2> % maxcore 2000
|  3> % output
|  4>     # printlevel mini
|  5>     print[ P_Basis ] 0
|  6>     print[ P_SCFInfo ] 1
|  7>     print[ P_SCFIterInfo ] 1
|  8>     print[ P_OrbEn ] 0
|  9>     print[ P_Cartesian ] 0
| 10> end
| 11> *xyz 0 1
| 12>  O        0.9802500000     0.0929540000     0.0287760000
| 13>  C        2.3822570000    -0.1111860000    -0.0428210000
| 14>  C        2.7551560000    -1.5643770000    -0.3471830000
| 15>  C        2.7158360000    -1.6395200000    -1.8714050000
| 16>  N        3.1986530000    -0.3279940000    -2.3386120000
| 17>  C        2.1452160000     0.6677050000    -2.4723450000
| 18>  C        2.9531410000     0.6217560000    -1.2419030000
| 19>  H        0.6447870000    -0.4094920000     0.7756700000
| 20>  H        2.8560830000     0.2441340000     0.8798620000
| 21>  H        2.1013020000    -2.2853020000     0.1515770000
| 22>  H        3.7773630000    -1.7448210000    -0.0011380000
| 23>  H        1.7006580000    -1.8352980000    -2.2318220000
| 24>  H        3.3659870000    -2.4224520000    -2.2663330000
| 25>  H        1.1143170000     0.3372110000    -2.3977500000
| 26>  H        2.3331830000     1.4434390000    -3.2076920000
| 27>  H        3.7264120000     1.3620340000    -1.0656800000
| 28> *
| 29>
| 30>                          ****END OF INPUT****
 Total Charge           Charge          ....    0
 Multiplicity           Mult            ....    1
 Number of Electrons    NEL             ....   54
 Basis Dimension        Dim             ....  143

MULLIKEN ATOMIC CHARGES
-----------------------
   0 O :   -0.250465
   1 C :    0.086380
   2 C :    0.047123
   3 C :    0.122226
   4 N :   -0.283639
   5 C :    0.120786
   6 C :   -0.102341
   7 H :    0.154005
   8 H :   -0.009180
   9 H :   -0.005866
  10 H :    0.013682
  11 H :    0.004406
  12 H :    0.019287
  13 H :    0.036743
  14 H :    0.027186
  15 H :    0.019667
Sum of atomic charges:   -0.0000000

LOEWDIN ATOMIC CHARGES
----------------------
   0 O :   -0.113282
   1 C :    0.042955
   2 C :   -0.055592
   3 C :    0.016903
   4 N :   -0.118507
   5 C :    0.017056
   6 C :   -0.009416
   7 H :    0.067318
   8 H :    0.009193
   9 H :    0.021076
  10 H :    0.030051
  11 H :    0.014424
  12 H :    0.022350
  13 H :    0.015984
  14 H :    0.020680
  15 H :    0.018807

  Mayer bond orders larger than 0.1
B(  0-O ,  1-C ) :   1.0919 B(  0-O ,  7-H ) :   0.9773 B(  1-C ,  2-C ) :   1.0481
B(  1-C ,  6-C ) :   1.0229 B(  1-C ,  8-H ) :   0.9296 B(  2-C ,  3-C ) :   1.0728
B(  2-C ,  9-H ) :   0.9173 B(  2-C , 10-H ) :   0.9198 B(  3-C ,  4-N ) :   1.0039
B(  3-C , 11-H ) :   0.9285 B(  3-C , 12-H ) :   0.9435 B(  4-N ,  5-C ) :   0.9824
B(  4-N ,  6-C ) :   0.9714 B(  5-C ,  6-C ) :   1.0441 B(  5-C , 13-H ) :   0.9109
B(  5-C , 14-H ) :   0.9414 B(  6-C , 15-H ) :   0.9493

FINAL SINGLE POINT ENERGY      -325.220891158386

DIPOLE MOMENT
-------------
                                X             Y             Z
Electronic contribution:     -0.23644       1.79905      -0.11912
Nuclear contribution   :      0.00890      -2.18310       0.89436
                        -----------------------------------------
Total Dipole Moment    :     -0.22754      -0.38405       0.77524
                        -----------------------------------------
Magnitude (a.u.)       :      0.89457
Magnitude (Debye)      :      2.27381

                             ****ORCA TERMINATED NORMALLY****
TOTAL RUN TIME: 0 days 0 hours 0 minutes 7 seconds 160 msec
