                         Program Version 3.0.3 - RELEASE   -
|  1> ! RI PBE def2-SVP def2-SVP/J NBO PAL2
|  2> % maxcore 2000
|  3> % output
|  4>     # printlevel mini
|  5>     print[ P_Basis ] 0
|  6>     print[ P_SCFInfo ] 1
|  7>     print[ P_SCFIterInfo ] 1
|  8>     print[ P_OrbEn ] 0
|  9>     print[ P_Cartesian ] 0
| 10> end
| 11> *xyz 0 1
| 12>  O        1.5041690000     0.2353100000     1.2036630000
| 13>  C        2.4012630000     0.0665220000     0.4233970000
| 14>  C        2.7563750000    -1.2365380000    -0.2836710000
| 15>  C        4.2042240000    -1.0346390000    -0.7281060000
| 16>  N        4.5070370000     0.4117180000    -0.7013590000
| 17>  C        3.5734830000     1.1941990000    -1.4691500000
| 18>  C        3.4110030000     1.0772950000     0.0060760000
| 19>  H        2.0549840000    -1.3927750000    -1.1082610000
| 20>  H        2.6251250000    -2.0703870000     0.4053470000
| 21>  H        4.4178130000    -1.4253160000    -1.7247370000
| 22>  H        4.8907980000    -1.5157810000    -0.0286990000
| 23>  H        2.8534480000     0.6866850000    -2.1061660000
| 24>  H        3.9614820000     2.1250730000    -1.8670470000
| 25>  H        3.6304040000     1.9103140000     0.6624130000
| 26> *
| 27>
| 28>                          ****END OF INPUT****
 Total Charge           Charge          ....    0
 Multiplicity           Mult            ....    1
 Number of Electrons    NEL             ....   52
 Basis Dimension        Dim             ....  133

MULLIKEN ATOMIC CHARGES
-----------------------
   0 O :   -0.134294
   1 C :    0.064398
   2 C :   -0.092045
   3 C :    0.156351
   4 N :   -0.266514
   5 C :    0.093739
   6 C :   -0.093707
   7 H :    0.058439
   8 H :    0.046943
   9 H :    0.015867
  10 H :    0.032905
  11 H :    0.037295
  12 H :    0.046640
  13 H :    0.033983
Sum of atomic charges:   -0.0000000

LOEWDIN ATOMIC CHARGES
----------------------
   0 O :   -0.111696
   1 C :    0.045096
   2 C :   -0.087071
   3 C :    0.020212
   4 N :   -0.096441
   5 C :    0.023612
   6 C :   -0.025428
   7 H :    0.047328
   8 H :    0.049034
   9 H :    0.024773
  10 H :    0.028935
  11 H :    0.017497
  12 H :    0.031236
  13 H :    0.032912

  Mayer bond orders larger than 0.1
B(  0-O ,  1-C ) :   2.2150 B(  1-C ,  2-C ) :   0.9643 B(  1-C ,  6-C ) :   0.9619
B(  2-C ,  3-C ) :   1.0642 B(  2-C ,  7-H ) :   0.9106 B(  2-C ,  8-H ) :   0.9138
B(  3-C ,  4-N ) :   1.0164 B(  3-C ,  9-H ) :   0.9381 B(  3-C , 10-H ) :   0.9441
B(  4-N ,  5-C ) :   0.9865 B(  4-N ,  6-C ) :   0.9259 B(  5-C ,  6-C ) :   0.9801
B(  5-C , 11-H ) :   0.9302 B(  5-C , 12-H ) :   0.9415 B(  6-C , 13-H ) :   0.9534

FINAL SINGLE POINT ENERGY      -324.038341293978

DIPOLE MOMENT
-------------
                                X             Y             Z
Electronic contribution:     -1.77932       1.86233       3.19233
Nuclear contribution   :      2.06770      -2.15842      -3.97087
                        -----------------------------------------
Total Dipole Moment    :      0.28838      -0.29609      -0.77854
                        -----------------------------------------
Magnitude (a.u.)       :      0.88145
Magnitude (Debye)      :      2.24048

                             ****ORCA TERMINATED NORMALLY****
TOTAL RUN TIME: 0 days 0 hours 0 minutes 6 seconds 192 msec
