                         Program Version 3.0.3 - RELEASE   -
|  1> ! RI PBE def2-SVP def2-SVP/J NBO PAL2
|  2> % maxcore 2000
|  3> % output
|  4>     # printlevel mini
|  5>     print[ P_Basis ] 0
|  6>     print[ P_SCFInfo ] 1
|  7>     print[ P_SCFIterInfo ] 1
|  8>     print[ P_OrbEn ] 0
|  9>     print[ P_Cartesian ] 0
| 10> end
| 11> *xyz 0 1
| 12>  O        0.9407000000    -0.0637920000    -0.3013840000
| 13>  C        2.1023590000     0.1030480000    -0.0221620000
| 14>  C        2.9123750000     1.3289160000    -0.1184010000
| 15>  C        4.1370880000     1.0585550000     0.3486840000
| 16>  N        4.2909870000    -0.2430490000     0.8812530000
| 17>  C        4.2876060000    -1.2523820000    -0.1789180000
| 18>  C        3.0411470000    -0.9190790000     0.5647340000
| 19>  H        2.5647800000     2.2581680000    -0.5450450000
| 20>  H        5.0096760000     1.7002930000     0.3412750000
| 21>  H        4.7933810000    -2.1831040000     0.0530280000
| 22>  H        4.3834240000    -0.8955080000    -1.1994800000
| 23>  H        2.6546680000    -1.6263560000     1.2883170000
| 24> *
| 25>
| 26>                          ****END OF INPUT****
 Total Charge           Charge          ....    0
 Multiplicity           Mult            ....    1
 Number of Electrons    NEL             ....   50
 Basis Dimension        Dim             ....  123

MULLIKEN ATOMIC CHARGES
-----------------------
   0 O :   -0.149406
   1 C :    0.143206
   2 C :   -0.060171
   3 C :    0.084135
   4 N :   -0.205056
   5 C :    0.107262
   6 C :   -0.103316
   7 H :   -0.001818
   8 H :    0.024270
   9 H :    0.056398
  10 H :    0.053299
  11 H :    0.051197
Sum of atomic charges:    0.0000000

LOEWDIN ATOMIC CHARGES
----------------------
   0 O :   -0.129182
   1 C :    0.023555
   2 C :   -0.081922
   3 C :    0.048144
   4 N :   -0.067068
   5 C :    0.056330
   6 C :   -0.013330
   7 H :    0.035521
   8 H :    0.028809
   9 H :    0.032533
  10 H :    0.026605
  11 H :    0.040005

  Mayer bond orders larger than 0.1
B(  0-O ,  1-C ) :   2.1484 B(  1-C ,  2-C ) :   1.0306 B(  1-C ,  6-C ) :   0.9372
B(  2-C ,  3-C ) :   1.6152 B(  2-C ,  7-H ) :   1.0055 B(  3-C ,  4-N ) :   1.1097
B(  3-C ,  8-H ) :   0.9855 B(  4-N ,  5-C ) :   0.9432 B(  4-N ,  6-C ) :   0.9229
B(  5-C ,  6-C ) :   0.9948 B(  5-C ,  9-H ) :   0.9455 B(  5-C , 10-H ) :   0.9268
B(  6-C , 11-H ) :   0.9460

FINAL SINGLE POINT ENERGY      -322.828983714045

DIPOLE MOMENT
-------------
                                X             Y             Z
Electronic contribution:     -2.61167       0.59122       0.63745
Nuclear contribution   :      3.74556      -0.63599      -0.78061
                        -----------------------------------------
Total Dipole Moment    :      1.13389      -0.04478      -0.14316
                        -----------------------------------------
Magnitude (a.u.)       :      1.14377
Magnitude (Debye)      :      2.90724

                             ****ORCA TERMINATED NORMALLY****
TOTAL RUN TIME: 0 days 0 hours 0 minutes 6 seconds 135 msec
