                         Program Version 3.0.3 - RELEASE   -
|  1> ! RI PBE def2-SVP def2-SVP/J NBO PAL2
|  2> % maxcore 2000
|  3> % output
|  4>     # printlevel mini
|  5>     print[ P_Basis ] 0
|  6>     print[ P_SCFInfo ] 1
|  7>     print[ P_SCFIterInfo ] 1
|  8>     print[ P_OrbEn ] 0
|  9>     print[ P_Cartesian ] 0
| 10> end
| 11> *xyz 0 1
| 12>  O        1.0386920000    -0.3071050000    -0.1158870000
| 13>  C        2.4386500000    -0.2771930000    -0.0516770000
| 14>  C        3.1251490000    -1.4321170000    -0.7146710000
| 15>  C        4.0439980000    -0.9501190000    -1.5478470000
| 16>  N        4.0527260000     0.4524350000    -1.5640720000
| 17>  C        3.0055530000     0.9240680000    -0.8029790000
| 18>  N        2.4868280000     2.0744690000    -0.7003670000
| 19>  H        0.7584200000     0.6184560000    -0.1014520000
| 20>  H        2.7716290000    -0.2054010000     0.9982190000
| 21>  H        2.9553480000    -2.4702130000    -0.4779470000
| 22>  H        4.7667270000    -1.4871310000    -2.1461030000
| 23>  H        4.4503740000     0.9837220000    -2.3197730000
| 24>  H        2.9288250000     2.7715280000    -1.2946460000
| 25> *
| 26>
| 27>                          ****END OF INPUT****
 Total Charge           Charge          ....    0
 Multiplicity           Mult            ....    1
 Number of Electrons    NEL             ....   52
 Basis Dimension        Dim             ....  128

MULLIKEN ATOMIC CHARGES
-----------------------
   0 O :   -0.257804
   1 C :    0.205896
   2 C :   -0.078064
   3 C :    0.082355
   4 N :   -0.103895
   5 C :   -0.145007
   6 N :   -0.084873
   7 H :    0.148980
   8 H :    0.031169
   9 H :    0.002637
  10 H :    0.003682
  11 H :    0.109794
  12 H :    0.085131
Sum of atomic charges:   -0.0000000

LOEWDIN ATOMIC CHARGES
----------------------
   0 O :   -0.107704
   1 C :    0.044424
   2 C :   -0.082492
   3 C :    0.016917
   4 N :    0.014675
   5 C :    0.001119
   6 N :   -0.154558
   7 H :    0.062776
   8 H :    0.029224
   9 H :    0.029762
  10 H :    0.024255
  11 H :    0.073574
  12 H :    0.048029

  Mayer bond orders larger than 0.1
B(  0-O ,  1-C ) :   1.1302 B(  0-O ,  7-H ) :   0.9560 B(  1-C ,  2-C ) :   1.0264
B(  1-C ,  5-C ) :   0.9177 B(  1-C ,  8-H ) :   0.8659 B(  2-C ,  3-C ) :   1.7568
B(  2-C ,  9-H ) :   0.9937 B(  3-C ,  4-N ) :   1.0654 B(  3-C , 10-H ) :   0.9797
B(  4-N ,  5-C ) :   1.1443 B(  4-N , 11-H ) :   0.9330 B(  5-C ,  6-N ) :   2.0215
B(  6-N , 12-H ) :   0.9261

FINAL SINGLE POINT ENERGY      -340.076231961351

DIPOLE MOMENT
-------------
                                X             Y             Z
Electronic contribution:     -0.33385       0.54148      -0.16938
Nuclear contribution   :      1.47803      -0.36048      -0.62206
                        -----------------------------------------
Total Dipole Moment    :      1.14417       0.18100      -0.79143
                        -----------------------------------------
Magnitude (a.u.)       :      1.40295
Magnitude (Debye)      :      3.56601

                             ****ORCA TERMINATED NORMALLY****
TOTAL RUN TIME: 0 days 0 hours 0 minutes 6 seconds 443 msec
