                         Program Version 3.0.3 - RELEASE   -
|  1> ! RI PBE def2-SVP def2-SVP/J NBO PAL2
|  2> % maxcore 2000
|  3> % output
|  4>     # printlevel mini
|  5>     print[ P_Basis ] 0
|  6>     print[ P_SCFInfo ] 1
|  7>     print[ P_SCFIterInfo ] 1
|  8>     print[ P_OrbEn ] 0
|  9>     print[ P_Cartesian ] 0
| 10> end
| 11> *xyz 0 1
| 12>  O        1.1201920000     0.3028950000    -0.0264030000
| 13>  C        2.5085450000     0.2461740000     0.0611450000
| 14>  C        3.1380220000     1.3140860000     0.9440480000
| 15>  C        4.4543250000     0.6632820000     1.3722680000
| 16>  N        4.1070750000    -0.7456960000     1.4025140000
| 17>  C        2.9834140000    -1.0423460000     0.7006520000
| 18>  N        2.3212600000    -2.1154930000     0.5393740000
| 19>  H        0.8321040000    -0.6237000000    -0.0133540000
| 20>  H        2.9626970000     0.2888890000    -0.9440110000
| 21>  H        2.4903610000     1.4668030000     1.8109360000
| 22>  H        3.2814120000     2.2697040000     0.4407460000
| 23>  H        4.7916440000     1.0070200000     2.3525500000
| 24>  H        5.2550630000     0.8666080000     0.6496840000
| 25>  H        4.7071530000    -1.4485520000     1.7961630000
| 26>  H        2.7110220000    -2.9140950000     1.0324870000
| 27> *
| 28>
| 29>                          ****END OF INPUT****
 Total Charge           Charge          ....    0
 Multiplicity           Mult            ....    1
 Number of Electrons    NEL             ....   54
 Basis Dimension        Dim             ....  138

MULLIKEN ATOMIC CHARGES
-----------------------
   0 O :   -0.241842
   1 C :    0.089021
   2 C :    0.010619
   3 C :    0.128902
   4 N :   -0.170105
   5 C :   -0.124572
   6 N :   -0.121581
   7 H :    0.148076
   8 H :    0.013045
   9 H :    0.025626
  10 H :    0.019295
  11 H :    0.018665
  12 H :    0.021525
  13 H :    0.103254
  14 H :    0.080072
Sum of atomic charges:   -0.0000000

LOEWDIN ATOMIC CHARGES
----------------------
   0 O :   -0.108430
   1 C :    0.033607
   2 C :   -0.043485
   3 C :    0.034270
   4 N :   -0.008821
   5 C :   -0.013323
   6 N :   -0.185938
   7 H :    0.060875
   8 H :    0.018744
   9 H :    0.032902
  10 H :    0.029610
  11 H :    0.022438
  12 H :    0.015712
  13 H :    0.067428
  14 H :    0.044411

  Mayer bond orders larger than 0.1
B(  0-O ,  1-C ) :   1.2006 B(  0-O ,  7-H ) :   0.9438 B(  1-C ,  2-C ) :   1.0559
B(  1-C ,  5-C ) :   0.9178 B(  1-C ,  8-H ) :   0.8872 B(  2-C ,  3-C ) :   1.0694
B(  2-C ,  9-H ) :   0.9191 B(  2-C , 10-H ) :   0.9323 B(  3-C ,  4-N ) :   0.9919
B(  3-C , 11-H ) :   0.9418 B(  3-C , 12-H ) :   0.9364 B(  4-N ,  5-C ) :   1.2016
B(  4-N ,  6-N ) :   0.1112 B(  4-N , 13-H ) :   0.9350 B(  5-C ,  6-N ) :   1.9854
B(  6-N , 14-H ) :   0.9276

FINAL SINGLE POINT ENERGY      -341.298157938837

DIPOLE MOMENT
-------------
                                X             Y             Z
Electronic contribution:     -1.98534      -2.41289      -0.67599
Nuclear contribution   :      3.42007       2.35868       1.35949
                        -----------------------------------------
Total Dipole Moment    :      1.43474      -0.05421       0.68349
                        -----------------------------------------
Magnitude (a.u.)       :      1.59015
Magnitude (Debye)      :      4.04183

                             ****ORCA TERMINATED NORMALLY****
TOTAL RUN TIME: 0 days 0 hours 0 minutes 7 seconds 423 msec
