                         Program Version 3.0.3 - RELEASE   -
|  1> ! RI PBE def2-SVP def2-SVP/J NBO PAL2
|  2> % maxcore 2000
|  3> % output
|  4>     # printlevel mini
|  5>     print[ P_Basis ] 0
|  6>     print[ P_SCFInfo ] 1
|  7>     print[ P_SCFIterInfo ] 1
|  8>     print[ P_OrbEn ] 0
|  9>     print[ P_Cartesian ] 0
| 10> end
| 11> *xyz 0 1
| 12>  O        1.2155520000    -0.0697880000     0.8352200000
| 13>  C        2.2908520000     0.0221540000     0.3240810000
| 14>  C        3.0587390000     1.2861340000     0.0168290000
| 15>  C        4.3638040000     0.8282280000    -0.6400330000
| 16>  N        4.2700640000    -0.6169210000    -0.6560180000
| 17>  C        3.1469550000    -1.1701920000    -0.1403520000
| 18>  O        2.8672640000    -2.3388160000    -0.0584180000
| 19>  H        3.2233560000     1.8393740000     0.9434870000
| 20>  H        2.4573460000     1.9234930000    -0.6340450000
| 21>  H        5.2398530000     1.1519370000    -0.0713220000
| 22>  H        4.4653890000     1.2199190000    -1.6559810000
| 23>  H        4.9975260000    -1.2012230000    -1.0341470000
| 24> *
| 25>
| 26>                          ****END OF INPUT****
 Total Charge           Charge          ....    0
 Multiplicity           Mult            ....    1
 Number of Electrons    NEL             ....   52
 Basis Dimension        Dim             ....  123

MULLIKEN ATOMIC CHARGES
-----------------------
   0 O :   -0.102079
   1 C :   -0.093274
   2 C :   -0.022725
   3 C :    0.162912
   4 N :   -0.190595
   5 C :    0.085236
   6 O :   -0.154098
   7 H :    0.064523
   8 H :    0.063529
   9 H :    0.030982
  10 H :    0.032220
  11 H :    0.123370
Sum of atomic charges:   -0.0000000

LOEWDIN ATOMIC CHARGES
----------------------
   0 O :   -0.069556
   1 C :    0.025936
   2 C :   -0.074607
   3 C :    0.036530
   4 N :    0.014731
   5 C :   -0.023316
   6 O :   -0.152009
   7 H :    0.056908
   8 H :    0.056226
   9 H :    0.025802
  10 H :    0.026021
  11 H :    0.077335

  Mayer bond orders larger than 0.1
B(  0-O ,  1-C ) :   2.2399 B(  1-C ,  2-C ) :   1.0132 B(  1-C ,  5-C ) :   0.7975
B(  2-C ,  3-C ) :   1.0885 B(  2-C ,  7-H ) :   0.9023 B(  2-C ,  8-H ) :   0.9040
B(  3-C ,  4-N ) :   1.0069 B(  3-C ,  9-H ) :   0.9334 B(  3-C , 10-H ) :   0.9327
B(  4-N ,  5-C ) :   1.1688 B(  4-N ,  6-O ) :   0.1249 B(  4-N , 11-H ) :   0.9208
B(  5-C ,  6-O ) :   2.1808

FINAL SINGLE POINT ENERGY      -359.962581409732

DIPOLE MOMENT
-------------
                                X             Y             Z
Electronic contribution:     -3.33098      -4.58898       1.39399
Nuclear contribution   :      4.89207       6.04877      -2.07739
                        -----------------------------------------
Total Dipole Moment    :      1.56109       1.45979      -0.68341
                        -----------------------------------------
Magnitude (a.u.)       :      2.24389
Magnitude (Debye)      :      5.70351

                             ****ORCA TERMINATED NORMALLY****
TOTAL RUN TIME: 0 days 0 hours 0 minutes 6 seconds 419 msec
