                         Program Version 3.0.3 - RELEASE   -
|  1> ! RI PBE def2-SVP def2-SVP/J NBO PAL2
|  2> % maxcore 2000
|  3> % output
|  4>     # printlevel mini
|  5>     print[ P_Basis ] 0
|  6>     print[ P_SCFInfo ] 1
|  7>     print[ P_SCFIterInfo ] 1
|  8>     print[ P_OrbEn ] 0
|  9>     print[ P_Cartesian ] 0
| 10> end
| 11> *xyz 0 1
| 12>  O        0.9849570000    -0.2004380000    -0.0140930000
| 13>  C        2.3836000000    -0.1715570000     0.0654990000
| 14>  C        3.0767330000    -1.3047810000    -0.6209770000
| 15>  C        3.9979260000    -0.7955060000    -1.4363860000
| 16>  N        3.9825730000     0.6064480000    -1.4285010000
| 17>  C        2.9608110000     1.0627110000    -0.6425870000
| 18>  O        2.5567520000     2.1947450000    -0.5396860000
| 19>  H        0.6824310000     0.7066970000     0.1189750000
| 20>  H        2.7165600000    -0.1206770000     1.1174490000
| 21>  H        2.9076310000    -2.3507460000    -0.4207320000
| 22>  H        4.7247820000    -1.3130590000    -2.0458230000
| 23>  H        4.4587340000     1.1920750000    -2.0934590000
| 24> *
| 25>
| 26>                          ****END OF INPUT****
 Total Charge           Charge          ....    0
 Multiplicity           Mult            ....    1
 Number of Electrons    NEL             ....   52
 Basis Dimension        Dim             ....  123

MULLIKEN ATOMIC CHARGES
-----------------------
   0 O :   -0.255047
   1 C :    0.141246
   2 C :   -0.075162
   3 C :    0.086878
   4 N :   -0.109010
   5 C :    0.046697
   6 O :   -0.171436
   7 H :    0.156380
   8 H :    0.037427
   9 H :    0.010328
  10 H :    0.011426
  11 H :    0.120275
Sum of atomic charges:    0.0000000

LOEWDIN ATOMIC CHARGES
----------------------
   0 O :   -0.100777
   1 C :    0.023770
   2 C :   -0.079326
   3 C :    0.022826
   4 N :    0.029954
   5 C :    0.021751
   6 O :   -0.159418
   7 H :    0.069308
   8 H :    0.032997
   9 H :    0.031212
  10 H :    0.027136
  11 H :    0.080566

  Mayer bond orders larger than 0.1
B(  0-O ,  1-C ) :   1.1037 B(  0-O ,  7-H ) :   0.9629 B(  1-C ,  2-C ) :   1.0246
B(  1-C ,  5-C ) :   0.8975 B(  1-C ,  8-H ) :   0.8605 B(  2-C ,  3-C ) :   1.7565
B(  2-C ,  9-H ) :   0.9958 B(  3-C ,  4-N ) :   1.0681 B(  3-C , 10-H ) :   0.9822
B(  4-N ,  5-C ) :   1.1541 B(  4-N , 11-H ) :   0.9253 B(  5-C ,  6-O ) :   2.1569

FINAL SINGLE POINT ENERGY      -359.940818820743

DIPOLE MOMENT
-------------
                                X             Y             Z
Electronic contribution:     -0.43808       2.46062      -0.31190
Nuclear contribution   :      1.38467      -2.87989      -0.08835
                        -----------------------------------------
Total Dipole Moment    :      0.94659      -0.41928      -0.40025
                        -----------------------------------------
Magnitude (a.u.)       :      1.10997
Magnitude (Debye)      :      2.82131

                             ****ORCA TERMINATED NORMALLY****
TOTAL RUN TIME: 0 days 0 hours 0 minutes 6 seconds 58 msec
