                         Program Version 3.0.3 - RELEASE   -
|  1> ! RI PBE def2-SVP def2-SVP/J NBO PAL2
|  2> % maxcore 2000
|  3> % output
|  4>     # printlevel mini
|  5>     print[ P_Basis ] 0
|  6>     print[ P_SCFInfo ] 1
|  7>     print[ P_SCFIterInfo ] 1
|  8>     print[ P_OrbEn ] 0
|  9>     print[ P_Cartesian ] 0
| 10> end
| 11> *xyz 0 1
| 12>  O        0.9690710000     0.2340910000    -0.0217100000
| 13>  C        2.3617330000     0.1680860000     0.0079390000
| 14>  C        3.0209330000     1.2085740000     0.8967930000
| 15>  C        4.3260540000     0.5254640000     1.3235510000
| 16>  N        3.9702690000    -0.8792600000     1.2983600000
| 17>  C        2.8449220000    -1.1476780000     0.6046390000
| 18>  O        2.2829990000    -2.2127880000     0.4665310000
| 19>  H        0.6621260000    -0.6809260000    -0.0892980000
| 20>  H        2.7784040000     0.2235920000    -1.0125970000
| 21>  H        2.3774140000     1.3681620000     1.7654150000
| 22>  H        3.1887810000     2.1669010000     0.4067070000
| 23>  H        4.6483660000     0.8323230000     2.3204290000
| 24>  H        5.1416510000     0.7423560000     0.6235780000
| 25>  H        4.5197760000    -1.6094080000     1.7189830000
| 26> *
| 27>
| 28>                          ****END OF INPUT****
 Total Charge           Charge          ....    0
 Multiplicity           Mult            ....    1
 Number of Electrons    NEL             ....   54
 Basis Dimension        Dim             ....  133

MULLIKEN ATOMIC CHARGES
-----------------------
   0 O :   -0.240387
   1 C :    0.034303
   2 C :    0.004773
   3 C :    0.131015
   4 N :   -0.169578
   5 C :    0.042680
   6 O :   -0.198306
   7 H :    0.153630
   8 H :    0.018045
   9 H :    0.030785
  10 H :    0.024459
  11 H :    0.024475
  12 H :    0.027170
  13 H :    0.116937
Sum of atomic charges:    0.0000000

LOEWDIN ATOMIC CHARGES
----------------------
   0 O :   -0.104037
   1 C :    0.012257
   2 C :   -0.042301
   3 C :    0.035314
   4 N :    0.010661
   5 C :    0.001670
   6 O :   -0.184678
   7 H :    0.065992
   8 H :    0.020169
   9 H :    0.035226
  10 H :    0.030597
  11 H :    0.024995
  12 H :    0.019009
  13 H :    0.075124

  Mayer bond orders larger than 0.1
B(  0-O ,  1-C ) :   1.1764 B(  0-O ,  7-H ) :   0.9546 B(  1-C ,  2-C ) :   1.0604
B(  1-C ,  5-C ) :   0.8946 B(  1-C ,  8-H ) :   0.8836 B(  2-C ,  3-C ) :   1.0664
B(  2-C ,  9-H ) :   0.9190 B(  2-C , 10-H ) :   0.9326 B(  3-C ,  4-N ) :   0.9940
B(  3-C , 11-H ) :   0.9440 B(  3-C , 12-H ) :   0.9362 B(  4-N ,  5-C ) :   1.2234
B(  4-N ,  6-O ) :   0.1022 B(  4-N , 13-H ) :   0.9232 B(  5-C ,  6-O ) :   2.1214

FINAL SINGLE POINT ENERGY      -361.164128231046

DIPOLE MOMENT
-------------
                                X             Y             Z
Electronic contribution:     -2.28578      -4.33891      -0.71148
Nuclear contribution   :      3.53472       4.90023       1.14083
                        -----------------------------------------
Total Dipole Moment    :      1.24894       0.56132       0.42935
                        -----------------------------------------
Magnitude (a.u.)       :      1.43502
Magnitude (Debye)      :      3.64752

                             ****ORCA TERMINATED NORMALLY****
TOTAL RUN TIME: 0 days 0 hours 0 minutes 6 seconds 126 msec
