                         Program Version 3.0.3 - RELEASE   -
|  1> ! RI PBE def2-SVP def2-SVP/J NBO PAL2
|  2> % maxcore 2000
|  3> % output
|  4>     # printlevel mini
|  5>     print[ P_Basis ] 0
|  6>     print[ P_SCFInfo ] 1
|  7>     print[ P_SCFIterInfo ] 1
|  8>     print[ P_OrbEn ] 0
|  9>     print[ P_Cartesian ] 0
| 10> end
| 11> *xyz 0 1
| 12>  O        1.0457200000     0.0422120000     0.1119930000
| 13>  C        2.3883660000     0.1127830000     0.0255380000
| 14>  C        3.0867560000     1.3137620000    -0.0185520000
| 15>  C        4.4682710000     1.2676580000    -0.1075930000
| 16>  N        5.1769190000     0.1457880000    -0.1540930000
| 17>  C        4.4894410000    -0.9924760000    -0.1106590000
| 18>  C        3.1113570000    -1.0723200000    -0.0219370000
| 19>  H        0.6764150000     0.9303060000     0.1363480000
| 20>  H        2.5676280000     2.2665500000     0.0156150000
| 21>  H        5.0335970000     2.1954110000    -0.1433200000
| 22>  H        5.0758370000    -1.9068300000    -0.1491290000
| 23>  H        2.5997930000    -2.0259430000     0.0102990000
| 24> *
| 25>
| 26>                          ****END OF INPUT****
 Total Charge           Charge          ....    0
 Multiplicity           Mult            ....    1
 Number of Electrons    NEL             ....   50
 Basis Dimension        Dim             ....  123

MULLIKEN ATOMIC CHARGES
-----------------------
   0 O :   -0.134996
   1 C :    0.143931
   2 C :   -0.070004
   3 C :    0.034532
   4 N :   -0.104410
   5 C :    0.036926
   6 C :   -0.039298
   7 H :    0.170191
   8 H :   -0.026091
   9 H :   -0.000907
  10 H :    0.001321
  11 H :   -0.011196
Sum of atomic charges:   -0.0000000

LOEWDIN ATOMIC CHARGES
----------------------
   0 O :   -0.009416
   1 C :    0.044917
   2 C :   -0.100354
   3 C :    0.016321
   4 N :   -0.091666
   5 C :    0.016544
   6 C :   -0.071068
   7 H :    0.089597
   8 H :    0.027152
   9 H :    0.020820
  10 H :    0.021741
  11 H :    0.035413

  Mayer bond orders larger than 0.1
B(  0-O ,  1-C ) :   1.2508 B(  0-O ,  7-H ) :   0.9620 B(  1-C ,  2-C ) :   1.3242
B(  1-C ,  6-C ) :   1.3527 B(  2-C ,  3-C ) :   1.3941 B(  2-C ,  8-H ) :   0.9583
B(  3-C ,  4-N ) :   1.5437 B(  3-C ,  9-H ) :   0.9617 B(  4-N ,  5-C ) :   1.5203
B(  5-C ,  6-C ) :   1.4049 B(  5-C , 10-H ) :   0.9640 B(  6-C , 11-H ) :   0.9667

FINAL SINGLE POINT ENERGY      -322.888638066170

DIPOLE MOMENT
-------------
                                X             Y             Z
Electronic contribution:     -0.36788      -0.28430       0.02363
Nuclear contribution   :     -0.64563       0.78869       0.04209
                        -----------------------------------------
Total Dipole Moment    :     -1.01352       0.50439       0.06572
                        -----------------------------------------
Magnitude (a.u.)       :      1.13400
Magnitude (Debye)      :      2.88239

                             ****ORCA TERMINATED NORMALLY****
TOTAL RUN TIME: 0 days 0 hours 0 minutes 5 seconds 478 msec
