                         Program Version 3.0.3 - RELEASE   -
|  1> ! RI PBE def2-SVP def2-SVP/J NBO PAL2
|  2> % maxcore 2000
|  3> % output
|  4>     # printlevel mini
|  5>     print[ P_Basis ] 0
|  6>     print[ P_SCFInfo ] 1
|  7>     print[ P_SCFIterInfo ] 1
|  8>     print[ P_OrbEn ] 0
|  9>     print[ P_Cartesian ] 0
| 10> end
| 11> *xyz 0 1
| 12>  O        1.0721070000     0.0954690000     0.0306680000
| 13>  C        2.4871010000     0.0069430000    -0.0668910000
| 14>  C        2.9377080000    -1.3918210000    -0.4751990000
| 15>  C        2.5236920000    -1.7156730000    -1.9003420000
| 16>  N        3.0614780000    -0.7072760000    -2.7956620000
| 17>  C        2.5187280000     0.6100110000    -2.5061950000
| 18>  C        2.9254630000     1.0288020000    -1.1030680000
| 19>  H        0.7677250000    -0.5892020000     0.6318080000
| 20>  H        2.9373770000     0.2639550000     0.9027070000
| 21>  H        2.5259900000    -2.1338000000     0.2189850000
| 22>  H        4.0284410000    -1.4455970000    -0.3976220000
| 23>  H        1.4227540000    -1.7770710000    -1.9493870000
| 24>  H        2.9202520000    -2.6926610000    -2.1893920000
| 25>  H        2.8704270000    -0.9584220000    -3.7565080000
| 26>  H        1.4192510000     0.6372560000    -2.5827550000
| 27>  H        2.9182730000     1.3214460000    -3.2337640000
| 28>  H        2.4903540000     1.9999720000    -0.8534990000
| 29>  H        4.0145890000     1.1231780000    -1.0590020000
| 30> *
| 31>
| 32>                          ****END OF INPUT****
 Total Charge           Charge          ....    0
 Multiplicity           Mult            ....    1
 Number of Electrons    NEL             ....   56
 Basis Dimension        Dim             ....  153

MULLIKEN ATOMIC CHARGES
-----------------------
   0 O :   -0.261603
   1 C :    0.027010
   2 C :   -0.000954
   3 C :    0.120768
   4 N :   -0.254470
   5 C :    0.090104
   6 C :    0.039904
   7 H :    0.148697
   8 H :   -0.009879
   9 H :   -0.002498
  10 H :    0.009651
  11 H :   -0.020238
  12 H :   -0.001165
  13 H :    0.095912
  14 H :   -0.003987
  15 H :    0.004182
  16 H :    0.009732
  17 H :    0.008834
Sum of atomic charges:    0.0000000

LOEWDIN ATOMIC CHARGES
----------------------
   0 O :   -0.117940
   1 C :    0.044166
   2 C :   -0.062472
   3 C :    0.010618
   4 N :   -0.103656
   5 C :    0.010074
   6 C :   -0.048815
   7 H :    0.064918
   8 H :    0.004446
   9 H :    0.019291
  10 H :    0.029075
  11 H :   -0.003038
  12 H :    0.019195
  13 H :    0.054299
  14 H :    0.002581
  15 H :    0.020486
  16 H :    0.028367
  17 H :    0.028407

  Mayer bond orders larger than 0.1
B(  0-O ,  1-C ) :   1.0587 B(  0-O ,  7-H ) :   0.9791 B(  1-C ,  2-C ) :   1.0708
B(  1-C ,  6-C ) :   1.0703 B(  1-C ,  8-H ) :   0.9231 B(  2-C ,  3-C ) :   1.0917
B(  2-C ,  9-H ) :   0.9228 B(  2-C , 10-H ) :   0.9072 B(  3-C ,  4-N ) :   1.0685
B(  3-C , 11-H ) :   0.9038 B(  3-C , 12-H ) :   0.9335 B(  4-N ,  5-C ) :   1.0640
B(  4-N , 13-H ) :   0.9386 B(  5-C ,  6-C ) :   1.1013 B(  5-C , 14-H ) :   0.9108
B(  5-C , 15-H ) :   0.9338 B(  6-C , 16-H ) :   0.9192 B(  6-C , 17-H ) :   0.9165

FINAL SINGLE POINT ENERGY      -326.462721425337

DIPOLE MOMENT
-------------
                                X             Y             Z
Electronic contribution:     -1.14600       0.47649       0.65493
Nuclear contribution   :      1.09827      -0.90116      -0.54736
                        -----------------------------------------
Total Dipole Moment    :     -0.04773      -0.42467       0.10757
                        -----------------------------------------
Magnitude (a.u.)       :      0.44068
Magnitude (Debye)      :      1.12011

                             ****ORCA TERMINATED NORMALLY****
TOTAL RUN TIME: 0 days 0 hours 0 minutes 7 seconds 912 msec
