                         Program Version 3.0.3 - RELEASE   -
|  1> ! RI PBE def2-SVP def2-SVP/J NBO PAL2
|  2> % maxcore 2000
|  3> % output
|  4>     # printlevel mini
|  5>     print[ P_Basis ] 0
|  6>     print[ P_SCFInfo ] 1
|  7>     print[ P_SCFIterInfo ] 1
|  8>     print[ P_OrbEn ] 0
|  9>     print[ P_Cartesian ] 0
| 10> end
| 11> *xyz 0 1
| 12>  O        1.0268880000     0.1033800000     0.2563820000
| 13>  C        2.2158370000     0.0789480000     0.0537970000
| 14>  C        2.9957070000    -1.2089470000    -0.0578450000
| 15>  C        3.9541730000    -1.1758810000    -1.2452140000
| 16>  N        4.7810740000     0.0108580000    -1.1687400000
| 17>  C        3.9954370000     1.2214410000    -1.2921400000
| 18>  C        3.0394810000     1.3338930000    -0.1076130000
| 19>  H        2.2946090000    -2.0420290000    -0.1215110000
| 20>  H        3.5842670000    -1.3165350000     0.8608190000
| 21>  H        3.3637930000    -1.2181560000    -2.1781610000
| 22>  H        4.5953330000    -2.0604430000    -1.2277700000
| 23>  H        5.5054540000    -0.0154060000    -1.8736220000
| 24>  H        3.4062280000     1.2474670000    -2.2264210000
| 25>  H        4.6666610000     2.0834260000    -1.3088900000
| 26>  H        2.3674240000     2.1874780000    -0.2042870000
| 27>  H        3.6320250000     1.4570150000     0.8065280000
| 28> *
| 29>
| 30>                          ****END OF INPUT****
 Total Charge           Charge          ....    0
 Multiplicity           Mult            ....    1
 Number of Electrons    NEL             ....   54
 Basis Dimension        Dim             ....  143

MULLIKEN ATOMIC CHARGES
-----------------------
   0 O :   -0.151868
   1 C :   -0.113449
   2 C :    0.076682
   3 C :    0.083017
   4 N :   -0.255809
   5 C :    0.080991
   6 C :    0.077849
   7 H :    0.015798
   8 H :    0.030311
   9 H :   -0.010228
  10 H :    0.012435
  11 H :    0.105355
  12 H :   -0.010422
  13 H :    0.013304
  14 H :    0.015138
  15 H :    0.030896
Sum of atomic charges:   -0.0000000

LOEWDIN ATOMIC CHARGES
----------------------
   0 O :   -0.119535
   1 C :    0.053241
   2 C :   -0.067867
   3 C :    0.017112
   4 N :   -0.101219
   5 C :    0.016774
   6 C :   -0.067762
   7 H :    0.034568
   8 H :    0.045098
   9 H :    0.000502
  10 H :    0.024229
  11 H :    0.060251
  12 H :    0.000485
  13 H :    0.024419
  14 H :    0.034447
  15 H :    0.045256

  Mayer bond orders larger than 0.1
B(  0-O ,  1-C ) :   2.2108 B(  1-C ,  2-C ) :   0.9944 B(  1-C ,  6-C ) :   0.9946
B(  2-C ,  3-C ) :   1.0735 B(  2-C ,  7-H ) :   0.9122 B(  2-C ,  8-H ) :   0.8950
B(  3-C ,  4-N ) :   1.0596 B(  3-C ,  9-H ) :   0.9121 B(  3-C , 10-H ) :   0.9325
B(  4-N ,  5-C ) :   1.0601 B(  4-N , 11-H ) :   0.9374 B(  5-C ,  6-C ) :   1.0741
B(  5-C , 12-H ) :   0.9118 B(  5-C , 13-H ) :   0.9323 B(  6-C , 14-H ) :   0.9119
B(  6-C , 15-H ) :   0.8949

FINAL SINGLE POINT ENERGY      -325.272176993697

DIPOLE MOMENT
-------------
                                X             Y             Z
Electronic contribution:     -3.67780       0.10385       2.06280
Nuclear contribution   :      4.78162      -0.13335      -2.60674
                        -----------------------------------------
Total Dipole Moment    :      1.10381      -0.02950      -0.54394
                        -----------------------------------------
Magnitude (a.u.)       :      1.23091
Magnitude (Debye)      :      3.12873

                             ****ORCA TERMINATED NORMALLY****
TOTAL RUN TIME: 0 days 0 hours 0 minutes 7 seconds 851 msec
