                         Program Version 3.0.3 - RELEASE   -
|  1> ! RI PBE def2-SVP def2-SVP/J NBO PAL2
|  2> % maxcore 2000
|  3> % output
|  4>     # printlevel mini
|  5>     print[ P_Basis ] 0
|  6>     print[ P_SCFInfo ] 1
|  7>     print[ P_SCFIterInfo ] 1
|  8>     print[ P_OrbEn ] 0
|  9>     print[ P_Cartesian ] 0
| 10> end
| 11> *xyz 0 1
| 12>  O        0.8565450000    -0.1192380000    -0.4556680000
| 13>  C        2.0474830000    -0.1064250000    -0.2128020000
| 14>  C        2.7619560000     1.1878040000     0.1510150000
| 15>  C        4.2223820000     1.1706440000    -0.2566020000
| 16>  N        4.8606280000    -0.0242960000     0.2561370000
| 17>  C        4.1997240000    -1.1979570000     0.1230720000
| 18>  C        2.8775890000    -1.2928360000    -0.1561530000
| 19>  H        2.6770830000     1.3038950000     1.2383320000
| 20>  H        2.2359350000     2.0231110000    -0.3119930000
| 21>  H        4.7469610000     2.0484390000     0.1254860000
| 22>  H        4.2929490000     1.1857390000    -1.3549280000
| 23>  H        5.8647470000    -0.0575140000     0.2392620000
| 24>  H        4.8037350000    -2.0882030000     0.2695340000
| 25>  H        2.4066020000    -2.2606630000    -0.2600900000
| 26> *
| 27>
| 28>                          ****END OF INPUT****
 Total Charge           Charge          ....    0
 Multiplicity           Mult            ....    1
 Number of Electrons    NEL             ....   52
 Basis Dimension        Dim             ....  133

MULLIKEN ATOMIC CHARGES
-----------------------
   0 O :   -0.188898
   1 C :   -0.003285
   2 C :    0.014904
   3 C :    0.087813
   4 N :   -0.133818
   5 C :    0.068367
   6 C :   -0.071430
   7 H :    0.042905
   8 H :    0.019882
   9 H :    0.012732
  10 H :    0.031787
  11 H :    0.125922
  12 H :    0.006764
  13 H :   -0.013645
Sum of atomic charges:   -0.0000000

LOEWDIN ATOMIC CHARGES
----------------------
   0 O :   -0.156079
   1 C :    0.025495
   2 C :   -0.069808
   3 C :    0.025861
   4 N :    0.014987
   5 C :    0.034899
   6 C :   -0.147120
   7 H :    0.043807
   8 H :    0.039784
   9 H :    0.027117
  10 H :    0.021996
  11 H :    0.078192
  12 H :    0.028361
  13 H :    0.032509

  Mayer bond orders larger than 0.1
B(  0-O ,  1-C ) :   2.0977 B(  1-C ,  2-C ) :   0.9863 B(  1-C ,  6-C ) :   1.1073
B(  2-C ,  3-C ) :   1.0725 B(  2-C ,  7-H ) :   0.9066 B(  2-C ,  8-H ) :   0.9091
B(  3-C ,  4-N ) :   1.0178 B(  3-C ,  9-H ) :   0.9282 B(  3-C , 10-H ) :   0.9382
B(  4-N ,  5-C ) :   1.2659 B(  4-N ,  6-C ) :   0.1021 B(  4-N , 11-H ) :   0.9319
B(  5-C ,  6-C ) :   1.5713 B(  5-C , 12-H ) :   0.9474 B(  6-C , 13-H ) :   0.9702

FINAL SINGLE POINT ENERGY      -324.079282983431

DIPOLE MOMENT
-------------
                                X             Y             Z
Electronic contribution:     -2.80202      -1.96537      -0.25712
Nuclear contribution   :      4.87644       2.21937       0.48485
                        -----------------------------------------
Total Dipole Moment    :      2.07441       0.25400       0.22773
                        -----------------------------------------
Magnitude (a.u.)       :      2.10228
Magnitude (Debye)      :      5.34356

                             ****ORCA TERMINATED NORMALLY****
TOTAL RUN TIME: 0 days 0 hours 0 minutes 7 seconds 445 msec
