                         Program Version 3.0.3 - RELEASE   -
|  1> ! RI PBE def2-SVP def2-SVP/J NBO PAL2
|  2> % maxcore 2000
|  3> % output
|  4>     # printlevel mini
|  5>     print[ P_Basis ] 0
|  6>     print[ P_SCFInfo ] 1
|  7>     print[ P_SCFIterInfo ] 1
|  8>     print[ P_OrbEn ] 0
|  9>     print[ P_Cartesian ] 0
| 10> end
| 11> *xyz 0 1
| 12>  O        0.9968410000    -0.0378850000     0.1772290000
| 13>  C        2.3270020000     0.0762050000     0.0785220000
| 14>  C        2.9777090000     1.3091840000     0.0111050000
| 15>  C        4.3517820000     1.2649080000    -0.0881620000
| 16>  N        5.0401760000     0.1251530000    -0.1196650000
| 17>  C        4.3079470000    -0.9765930000    -0.0484150000
| 18>  N        2.9880160000    -1.0650860000     0.0490540000
| 19>  H        0.5977830000     0.8376340000     0.1919000000
| 20>  H        2.4409310000     2.2507460000     0.0348500000
| 21>  H        4.9286110000     2.1841920000    -0.1451020000
| 22>  H        4.8468940000    -1.9201580000    -0.0722360000
| 23> *
| 24>
| 25>                          ****END OF INPUT****
 Total Charge           Charge          ....    0
 Multiplicity           Mult            ....    1
 Number of Electrons    NEL             ....   50
 Basis Dimension        Dim             ....  118

MULLIKEN ATOMIC CHARGES
-----------------------
   0 O :   -0.093131
   1 C :    0.056335
   2 C :   -0.068781
   3 C :    0.064428
   4 N :   -0.124449
   5 C :    0.071808
   6 N :   -0.087974
   7 H :    0.169923
   8 H :   -0.015221
   9 H :    0.008405
  10 H :    0.018656
Sum of atomic charges:   -0.0000000

LOEWDIN ATOMIC CHARGES
----------------------
   0 O :    0.010498
   1 C :    0.045998
   2 C :   -0.111483
   3 C :    0.037528
   4 N :   -0.099222
   5 C :    0.041051
   6 N :   -0.088757
   7 H :    0.090505
   8 H :    0.029667
   9 H :    0.025456
  10 H :    0.018759

  Mayer bond orders larger than 0.1
B(  0-O ,  1-C ) :   1.2867 B(  0-O ,  7-H ) :   0.9586 B(  1-C ,  2-C ) :   1.2753
B(  1-C ,  6-N ) :   1.5104 B(  2-C ,  3-C ) :   1.4306 B(  2-C ,  8-H ) :   0.9497
B(  3-C ,  4-N ) :   1.5164 B(  3-C ,  9-H ) :   0.9670 B(  4-N ,  5-C ) :   1.5157
B(  5-C ,  6-N ) :   1.4993 B(  5-C , 10-H ) :   0.9633

FINAL SINGLE POINT ENERGY      -338.915732648457

DIPOLE MOMENT
-------------
                                X             Y             Z
Electronic contribution:     -0.60712      -1.54357       0.06887
Nuclear contribution   :     -0.07155       2.75758      -0.03974
                        -----------------------------------------
Total Dipole Moment    :     -0.67867       1.21401       0.02912
                        -----------------------------------------
Magnitude (a.u.)       :      1.39114
Magnitude (Debye)      :      3.53598

                             ****ORCA TERMINATED NORMALLY****
TOTAL RUN TIME: 0 days 0 hours 0 minutes 5 seconds 200 msec
