                         Program Version 3.0.3 - RELEASE   -
|  1> ! RI PBE def2-SVP def2-SVP/J NBO PAL2
|  2> % maxcore 2000
|  3> % output
|  4>     # printlevel mini
|  5>     print[ P_Basis ] 0
|  6>     print[ P_SCFInfo ] 1
|  7>     print[ P_SCFIterInfo ] 1
|  8>     print[ P_OrbEn ] 0
|  9>     print[ P_Cartesian ] 0
| 10> end
| 11> *xyz 0 1
| 12>  O        0.9378940000    -0.1299540000     0.4056640000
| 13>  C        2.1038740000    -0.0683850000     0.1021350000
| 14>  C        2.8319700000     1.1777460000    -0.3238510000
| 15>  C        4.3103890000     1.1204090000     0.0358470000
| 16>  N        4.9600220000    -0.1155450000    -0.3588890000
| 17>  C        4.2439480000    -1.1534320000    -0.3029420000
| 18>  N        2.9039120000    -1.1910610000     0.0596320000
| 19>  H        2.3291530000     2.0402390000     0.1136030000
| 20>  H        2.7140470000     1.2483560000    -1.4121480000
| 21>  H        4.4372600000     1.2309560000     1.1214750000
| 22>  H        4.8418290000     1.9568470000    -0.4216570000
| 23>  H        4.6730620000    -2.1261710000    -0.5375720000
| 24>  H        2.4431290000    -2.0767060000     0.2021830000
| 25> *
| 26>
| 27>                          ****END OF INPUT****
 Total Charge           Charge          ....    0
 Multiplicity           Mult            ....    1
 Number of Electrons    NEL             ....   52
 Basis Dimension        Dim             ....  128

MULLIKEN ATOMIC CHARGES
-----------------------
   0 O :   -0.165128
   1 C :    0.031401
   2 C :   -0.050447
   3 C :    0.106459
   4 N :   -0.197188
   5 C :    0.079484
   6 N :   -0.089360
   7 H :    0.032763
   8 H :    0.059492
   9 H :    0.035475
  10 H :    0.017787
  11 H :    0.017598
  12 H :    0.121665
Sum of atomic charges:   -0.0000000

LOEWDIN ATOMIC CHARGES
----------------------
   0 O :   -0.153947
   1 C :    0.040231
   2 C :   -0.077709
   3 C :    0.004478
   4 N :   -0.119557
   5 C :    0.027397
   6 N :    0.015989
   7 H :    0.046078
   8 H :    0.051164
   9 H :    0.032823
  10 H :    0.029560
  11 H :    0.019193
  12 H :    0.084299

  Mayer bond orders larger than 0.1
B(  0-O ,  1-C ) :   2.1689 B(  1-C ,  2-C ) :   0.9886 B(  1-C ,  6-N ) :   1.1078
B(  2-C ,  3-C ) :   1.0555 B(  2-C ,  7-H ) :   0.9122 B(  2-C ,  8-H ) :   0.9063
B(  3-C ,  4-N ) :   1.0468 B(  3-C ,  9-H ) :   0.9340 B(  3-C , 10-H ) :   0.9272
B(  4-N ,  5-C ) :   1.9366 B(  5-C ,  6-N ) :   1.0828 B(  5-C , 11-H ) :   0.9536
B(  6-N , 12-H ) :   0.9091

FINAL SINGLE POINT ENERGY      -340.123109243928

DIPOLE MOMENT
-------------
                                X             Y             Z
Electronic contribution:     -2.09342      -2.72730       0.50798
Nuclear contribution   :      2.37097       2.42134      -0.61181
                        -----------------------------------------
Total Dipole Moment    :      0.27755      -0.30596      -0.10383
                        -----------------------------------------
Magnitude (a.u.)       :      0.42594
Magnitude (Debye)      :      1.08266

                             ****ORCA TERMINATED NORMALLY****
TOTAL RUN TIME: 0 days 0 hours 0 minutes 6 seconds 497 msec
