                         Program Version 3.0.3 - RELEASE   -
|  1> ! RI PBE def2-SVP def2-SVP/J NBO PAL2
|  2> % maxcore 2000
|  3> % output
|  4>     # printlevel mini
|  5>     print[ P_Basis ] 0
|  6>     print[ P_SCFInfo ] 1
|  7>     print[ P_SCFIterInfo ] 1
|  8>     print[ P_OrbEn ] 0
|  9>     print[ P_Cartesian ] 0
| 10> end
| 11> *xyz 0 1
| 12>  O        0.9285630000     0.1680280000     0.1994850000
| 13>  C        2.1051950000     0.0142460000     0.0876340000
| 14>  O        2.9147680000     1.1667270000     0.0305990000
| 15>  C        4.2346240000     1.0708680000    -0.0934700000
| 16>  N        4.9211640000    -0.0011280000    -0.1740580000
| 17>  C        4.1988580000    -1.1690510000    -0.1252870000
| 18>  C        2.8575020000    -1.2105760000    -0.0013420000
| 19>  H        4.7086250000     2.0474350000    -0.1221440000
| 20>  H        4.7832990000    -2.0805510000    -0.1938330000
| 21>  H        2.3028030000    -2.1378970000     0.0357060000
| 22> *
| 23>
| 24>                          ****END OF INPUT****
 Total Charge           Charge          ....    0
 Multiplicity           Mult            ....    1
 Number of Electrons    NEL             ....   50
 Basis Dimension        Dim             ....  113

MULLIKEN ATOMIC CHARGES
-----------------------
   0 O :   -0.125013
   1 C :    0.168240
   2 O :   -0.172237
   3 C :    0.174330
   4 N :   -0.129696
   5 C :    0.081996
   6 C :   -0.089815
   7 H :    0.045289
   8 H :    0.023895
   9 H :    0.023011
Sum of atomic charges:   -0.0000000

LOEWDIN ATOMIC CHARGES
----------------------
   0 O :   -0.111968
   1 C :    0.047146
   2 O :   -0.001142
   3 C :    0.095708
   4 N :   -0.100675
   5 C :    0.045240
   6 C :   -0.083420
   7 H :    0.029034
   8 H :    0.032332
   9 H :    0.047744

  Mayer bond orders larger than 0.1
B(  0-O ,  1-C ) :   2.1834 B(  1-C ,  2-O ) :   0.9582 B(  1-C ,  6-C ) :   1.0908
B(  2-O ,  3-C ) :   1.2162 B(  3-C ,  4-N ) :   1.7565 B(  3-C ,  7-H ) :   0.9594
B(  4-N ,  5-C ) :   1.2851 B(  5-C ,  6-C ) :   1.6054 B(  5-C ,  8-H ) :   0.9702
B(  6-C ,  9-H ) :   0.9693

FINAL SINGLE POINT ENERGY      -358.751934356621

DIPOLE MOMENT
-------------
                                X             Y             Z
Electronic contribution:     -1.46261       1.78904       0.16352
Nuclear contribution   :      2.24861      -2.12280      -0.24199
                        -----------------------------------------
Total Dipole Moment    :      0.78600      -0.33376      -0.07847
                        -----------------------------------------
Magnitude (a.u.)       :      0.85752
Magnitude (Debye)      :      2.17965

                             ****ORCA TERMINATED NORMALLY****
TOTAL RUN TIME: 0 days 0 hours 0 minutes 5 seconds 285 msec
