                         Program Version 3.0.3 - RELEASE   -
|  1> ! RI PBE def2-SVP def2-SVP/J NBO PAL2
|  2> % maxcore 2000
|  3> % output
|  4>     # printlevel mini
|  5>     print[ P_Basis ] 0
|  6>     print[ P_SCFInfo ] 1
|  7>     print[ P_SCFIterInfo ] 1
|  8>     print[ P_OrbEn ] 0
|  9>     print[ P_Cartesian ] 0
| 10> end
| 11> *xyz 0 1
| 12>  O        0.8388230000    -0.2185980000    -0.0406740000
| 13>  C        2.1699770000    -0.0094700000     0.0171070000
| 14>  C        2.9095440000     1.1420550000     0.0018020000
| 15>  O        2.3438640000     2.3865430000    -0.1337370000
| 16>  C        4.2776880000     0.7659850000     0.0690440000
| 17>  C        4.3152870000    -0.6012660000     0.1295720000
| 18>  N        3.0220640000    -1.0623210000     0.0891320000
| 19>  H        0.4227690000     0.6453510000    -0.1311410000
| 20>  H        2.6256360000     2.9391600000     0.5999300000
| 21>  H        5.1302640000     1.4271730000     0.0650360000
| 22>  H        5.1472580000    -1.2814530000     0.1954580000
| 23>  H        2.7320170000    -2.0226690000     0.1025510000
| 24> *
| 25>
| 26>                          ****END OF INPUT****
 Total Charge           Charge          ....    0
 Multiplicity           Mult            ....    1
 Number of Electrons    NEL             ....   52
 Basis Dimension        Dim             ....  123

MULLIKEN ATOMIC CHARGES
-----------------------
   0 O :   -0.156815
   1 C :    0.063310
   2 C :    0.011851
   3 O :   -0.225804
   4 C :   -0.074911
   5 C :    0.035907
   6 N :   -0.072467
   7 H :    0.177221
   8 H :    0.177035
   9 H :   -0.037785
  10 H :   -0.012924
  11 H :    0.115384
Sum of atomic charges:   -0.0000000

LOEWDIN ATOMIC CHARGES
----------------------
   0 O :   -0.041250
   1 C :   -0.014350
   2 C :   -0.089028
   3 O :   -0.076365
   4 C :   -0.111499
   5 C :   -0.051488
   6 N :    0.083124
   7 H :    0.094600
   8 H :    0.084726
   9 H :    0.021901
  10 H :    0.015629
  11 H :    0.083999

  Mayer bond orders larger than 0.1
B(  0-O ,  1-C ) :   1.2614 B(  0-O ,  7-H ) :   0.9548 B(  1-C ,  2-C ) :   1.3928
B(  1-C ,  6-N ) :   1.2146 B(  2-C ,  3-O ) :   1.1555 B(  2-C ,  4-C ) :   1.2650
B(  3-O ,  8-H ) :   0.9722 B(  4-C ,  5-C ) :   1.4589 B(  4-C ,  9-H ) :   1.0194
B(  5-C ,  6-N ) :   1.1790 B(  5-C , 10-H ) :   0.9888 B(  6-N , 11-H ) :   0.9344

FINAL SINGLE POINT ENERGY      -359.931550643869

DIPOLE MOMENT
-------------
                                X             Y             Z
Electronic contribution:     -2.17547       0.00433      -0.25380
Nuclear contribution   :      2.07707      -0.14164       0.68726
                        -----------------------------------------
Total Dipole Moment    :     -0.09840      -0.13730       0.43346
                        -----------------------------------------
Magnitude (a.u.)       :      0.46521
Magnitude (Debye)      :      1.18248

                             ****ORCA TERMINATED NORMALLY****
TOTAL RUN TIME: 0 days 0 hours 0 minutes 5 seconds 655 msec
