                         Program Version 3.0.3 - RELEASE   -
|  1> ! RI PBE def2-SVP def2-SVP/J NBO PAL2
|  2> % maxcore 2000
|  3> % output
|  4>     # printlevel mini
|  5>     print[ P_Basis ] 0
|  6>     print[ P_SCFInfo ] 1
|  7>     print[ P_SCFIterInfo ] 1
|  8>     print[ P_OrbEn ] 0
|  9>     print[ P_Cartesian ] 0
| 10> end
| 11> *xyz 0 1
| 12>  O        1.0310730000    -0.0544470000     0.2161540000
| 13>  C        2.2469330000    -0.0023350000     0.1108820000
| 14>  C        3.0269620000     1.2120390000     0.0084830000
| 15>  C        4.3714260000     1.1267830000    -0.1037860000
| 16>  N        4.9928390000    -0.0727910000    -0.1214380000
| 17>  N        4.3664640000    -1.2415260000    -0.0334540000
| 18>  C        3.0797140000    -1.2118310000     0.0755200000
| 19>  H        2.5278820000     2.1717350000     0.0227840000
| 20>  H        5.0236890000     1.9887270000    -0.1848970000
| 21>  H        5.9923610000    -0.1406710000    -0.2047720000
| 22>  H        2.5847570000    -2.1750630000     0.1462250000
| 23> *
| 24>
| 25>                          ****END OF INPUT****
 Total Charge           Charge          ....    0
 Multiplicity           Mult            ....    1
 Number of Electrons    NEL             ....   50
 Basis Dimension        Dim             ....  118

MULLIKEN ATOMIC CHARGES
-----------------------
   0 O :   -0.203859
   1 C :    0.109050
   2 C :   -0.081097
   3 C :    0.109125
   4 N :   -0.011829
   5 N :   -0.023395
   6 C :   -0.071168
   7 H :    0.005245
   8 H :    0.008327
   9 H :    0.144191
  10 H :    0.015412
Sum of atomic charges:   -0.0000000

LOEWDIN ATOMIC CHARGES
----------------------
   0 O :   -0.178544
   1 C :   -0.021746
   2 C :   -0.071344
   3 C :    0.015392
   4 N :    0.122800
   5 N :   -0.031112
   6 C :   -0.032102
   7 H :    0.040487
   8 H :    0.034428
   9 H :    0.090051
  10 H :    0.031690

  Mayer bond orders larger than 0.1
B(  0-O ,  1-C ) :   2.0272 B(  1-C ,  2-C ) :   1.0828 B(  1-C ,  6-C ) :   1.0098
B(  2-C ,  3-C ) :   1.5306 B(  2-C ,  7-H ) :   0.9793 B(  3-C ,  4-N ) :   1.2078
B(  3-C ,  8-H ) :   0.9578 B(  4-N ,  5-N ) :   1.1370 B(  4-N ,  9-H ) :   0.9366
B(  5-N ,  6-C ) :   1.7632 B(  6-C , 10-H ) :   0.9578

FINAL SINGLE POINT ENERGY      -338.887586308382

DIPOLE MOMENT
-------------
                                X             Y             Z
Electronic contribution:     -0.78593      -1.20640       0.10118
Nuclear contribution   :      2.74514       1.87651      -0.28963
                        -----------------------------------------
Total Dipole Moment    :      1.95921       0.67011      -0.18844
                        -----------------------------------------
Magnitude (a.u.)       :      2.07920
Magnitude (Debye)      :      5.28490

                             ****ORCA TERMINATED NORMALLY****
TOTAL RUN TIME: 0 days 0 hours 0 minutes 6 seconds 151 msec
