                         Program Version 3.0.3 - RELEASE   -
|  1> ! RI PBE def2-SVP def2-SVP/J NBO PAL2
|  2> % maxcore 2000
|  3> % output
|  4>     # printlevel mini
|  5>     print[ P_Basis ] 0
|  6>     print[ P_SCFInfo ] 1
|  7>     print[ P_SCFIterInfo ] 1
|  8>     print[ P_OrbEn ] 0
|  9>     print[ P_Cartesian ] 0
| 10> end
| 11> *xyz 0 1
| 12>  O        0.8933190000    -0.0737050000    -0.3636490000
| 13>  C        2.0720080000     0.0248160000    -0.1046450000
| 14>  C        2.7387250000     1.3406270000     0.2281610000
| 15>  C        4.2016190000     1.2731160000    -0.1574940000
| 16>  N        4.7924920000     0.0999050000     0.4474030000
| 17>  N        4.2114940000    -1.0808910000     0.3025830000
| 18>  C        2.9591650000    -1.1398050000    -0.0069800000
| 19>  H        2.6365530000     1.4941010000     1.3093510000
| 20>  H        2.2179150000     2.1539470000    -0.2776850000
| 21>  H        4.7530010000     2.1552620000     0.1721410000
| 22>  H        4.2868370000     1.2043460000    -1.2542400000
| 23>  H        5.7965010000     0.0280520000     0.4495580000
| 24>  H        2.5237810000    -2.1276810000    -0.1074160000
| 25> *
| 26>
| 27>                          ****END OF INPUT****
 Total Charge           Charge          ....    0
 Multiplicity           Mult            ....    1
 Number of Electrons    NEL             ....   52
 Basis Dimension        Dim             ....  128

MULLIKEN ATOMIC CHARGES
-----------------------
   0 O :   -0.165343
   1 C :   -0.043157
   2 C :    0.050381
   3 C :    0.065172
   4 N :   -0.095423
   5 N :   -0.045756
   6 C :   -0.042719
   7 H :    0.048695
   8 H :    0.028473
   9 H :    0.020679
  10 H :    0.038915
  11 H :    0.133603
  12 H :    0.006480
Sum of atomic charges:    0.0000000

LOEWDIN ATOMIC CHARGES
----------------------
   0 O :   -0.127373
   1 C :    0.012019
   2 C :   -0.070284
   3 C :    0.009207
   4 N :    0.042166
   5 N :   -0.010101
   6 C :   -0.103061
   7 H :    0.048368
   8 H :    0.043751
   9 H :    0.031006
  10 H :    0.024851
  11 H :    0.073019
  12 H :    0.026433

  Mayer bond orders larger than 0.1
B(  0-O ,  1-C ) :   2.1136 B(  1-C ,  2-C ) :   0.9805 B(  1-C ,  6-C ) :   1.0351
B(  2-C ,  3-C ) :   1.0651 B(  2-C ,  7-H ) :   0.9082 B(  2-C ,  8-H ) :   0.9086
B(  3-C ,  4-N ) :   1.0071 B(  3-C ,  9-H ) :   0.9255 B(  3-C , 10-H ) :   0.9302
B(  4-N ,  5-N ) :   1.2016 B(  4-N ,  6-C ) :   0.1201 B(  4-N , 11-H ) :   0.9391
B(  5-N ,  6-C ) :   1.7359 B(  6-C , 12-H ) :   0.9590

FINAL SINGLE POINT ENERGY      -340.075391637353

DIPOLE MOMENT
-------------
                                X             Y             Z
Electronic contribution:     -1.83899      -3.23208       0.06452
Nuclear contribution   :      3.23168       4.13531       0.01367
                        -----------------------------------------
Total Dipole Moment    :      1.39269       0.90323       0.07819
                        -----------------------------------------
Magnitude (a.u.)       :      1.66179
Magnitude (Debye)      :      4.22393

                             ****ORCA TERMINATED NORMALLY****
TOTAL RUN TIME: 0 days 0 hours 0 minutes 6 seconds 472 msec
