                         Program Version 3.0.3 - RELEASE   -
|  1> ! RI PBE def2-SVP def2-SVP/J NBO PAL2
|  2> % maxcore 2000
|  3> % output
|  4>     # printlevel mini
|  5>     print[ P_Basis ] 0
|  6>     print[ P_SCFInfo ] 1
|  7>     print[ P_SCFIterInfo ] 1
|  8>     print[ P_OrbEn ] 0
|  9>     print[ P_Cartesian ] 0
| 10> end
| 11> *xyz 0 1
| 12>  O        1.0824110000    -0.1477300000     0.7348030000
| 13>  C        2.3560390000     0.0107010000     0.1600670000
| 14>  C        2.4993130000     1.2253290000    -0.7395150000
| 15>  C        3.8113360000     1.0679110000    -1.4482980000
| 16>  N        4.2958050000    -0.0582760000    -1.7878450000
| 17>  N        3.4665680000    -1.1812720000    -1.6568240000
| 18>  C        2.6062120000    -1.1729700000    -0.7242420000
| 19>  H        0.9286390000     0.5731670000     1.3503980000
| 20>  H        3.1399530000     0.0432670000     0.9357560000
| 21>  H        2.4807000000     2.1609200000    -0.1767010000
| 22>  H        1.6679520000     1.2481740000    -1.4567290000
| 23>  H        4.4349160000     1.9372480000    -1.6457750000
| 24>  H        1.9739760000    -2.0504700000    -0.6035960000
| 25> *
| 26>
| 27>                          ****END OF INPUT****
 Total Charge           Charge          ....    0
 Multiplicity           Mult            ....    1
 Number of Electrons    NEL             ....   52
 Basis Dimension        Dim             ....  128

MULLIKEN ATOMIC CHARGES
-----------------------
   0 O :   -0.244341
   1 C :    0.061403
   2 C :    0.068593
   3 C :   -0.063858
   4 N :   -0.068649
   5 N :   -0.055944
   6 C :   -0.020568
   7 H :    0.160117
   8 H :    0.033259
   9 H :    0.018825
  10 H :    0.047878
  11 H :    0.027448
  12 H :    0.035838
Sum of atomic charges:    0.0000000

LOEWDIN ATOMIC CHARGES
----------------------
   0 O :   -0.100043
   1 C :    0.017615
   2 C :   -0.075933
   3 C :    0.000065
   4 N :   -0.044780
   5 N :   -0.038661
   6 C :    0.001919
   7 H :    0.075131
   8 H :    0.024460
   9 H :    0.034973
  10 H :    0.049634
  11 H :    0.024803
  12 H :    0.030820

  Mayer bond orders larger than 0.1
B(  0-O ,  1-C ) :   1.1015 B(  0-O ,  7-H ) :   0.9760 B(  1-C ,  2-C ) :   1.0629
B(  1-C ,  6-C ) :   0.9517 B(  1-C ,  8-H ) :   0.8997 B(  2-C ,  3-C ) :   0.9773
B(  2-C ,  9-H ) :   0.9174 B(  2-C , 10-H ) :   0.8835 B(  3-C ,  4-N ) :   1.9242
B(  3-C , 11-H ) :   0.9615 B(  4-N ,  5-N ) :   1.0210 B(  5-N ,  6-C ) :   1.9297
B(  6-C , 12-H ) :   0.9574

FINAL SINGLE POINT ENERGY      -340.031923588746

DIPOLE MOMENT
-------------
                                X             Y             Z
Electronic contribution:      1.48379      -2.56662      -1.54452
Nuclear contribution   :     -2.13902       3.78813       2.59551
                        -----------------------------------------
Total Dipole Moment    :     -0.65523       1.22151       1.05099
                        -----------------------------------------
Magnitude (a.u.)       :      1.73954
Magnitude (Debye)      :      4.42155

                             ****ORCA TERMINATED NORMALLY****
TOTAL RUN TIME: 0 days 0 hours 0 minutes 6 seconds 430 msec
