                         Program Version 3.0.3 - RELEASE   -
|  1> ! RI PBE def2-SVP def2-SVP/J NBO PAL2
|  2> % maxcore 2000
|  3> % output
|  4>     # printlevel mini
|  5>     print[ P_Basis ] 0
|  6>     print[ P_SCFInfo ] 1
|  7>     print[ P_SCFIterInfo ] 1
|  8>     print[ P_OrbEn ] 0
|  9>     print[ P_Cartesian ] 0
| 10> end
| 11> *xyz 0 1
| 12>  O        0.9783070000     0.1276170000    -0.3745230000
| 13>  C        2.3434470000     0.1005000000     0.0232820000
| 14>  C        3.0802620000     1.3811200000    -0.3470590000
| 15>  C        3.4664250000     1.3085930000    -1.8102540000
| 16>  N        4.3326730000     0.1637150000    -1.9747200000
| 17>  N        3.8923260000    -1.0349700000    -1.5407280000
| 18>  C        2.9848390000    -1.0802430000    -0.6438140000
| 19>  H        0.5080790000     0.7269970000     0.2122950000
| 20>  H        2.4035290000    -0.0563610000     1.1101250000
| 21>  H        3.9847300000     1.4748530000     0.2622560000
| 22>  H        2.4475770000     2.2499240000    -0.1478160000
| 23>  H        4.0038310000     2.2010640000    -2.1367010000
| 24>  H        2.5518520000     1.2074530000    -2.4153930000
| 25>  H        4.7765180000     0.0669740000    -2.8730610000
| 26>  H        2.6809050000    -2.0728360000    -0.3258890000
| 27> *
| 28>
| 29>                          ****END OF INPUT****
 Total Charge           Charge          ....    0
 Multiplicity           Mult            ....    1
 Number of Electrons    NEL             ....   54
 Basis Dimension        Dim             ....  138

MULLIKEN ATOMIC CHARGES
-----------------------
   0 O :   -0.263293
   1 C :    0.074553
   2 C :    0.037379
   3 C :    0.091852
   4 N :   -0.119824
   5 N :   -0.081391
   6 C :   -0.061944
   7 H :    0.146450
   8 H :    0.009853
   9 H :    0.015700
  10 H :   -0.003135
  11 H :    0.010001
  12 H :    0.018663
  13 H :    0.119975
  14 H :    0.005160
Sum of atomic charges:   -0.0000000

LOEWDIN ATOMIC CHARGES
----------------------
   0 O :   -0.116093
   1 C :    0.021888
   2 C :   -0.058665
   3 C :    0.006014
   4 N :    0.003308
   5 N :   -0.036860
   6 C :   -0.077000
   7 H :    0.063085
   8 H :    0.017224
   9 H :    0.030590
  10 H :    0.024924
  11 H :    0.024350
  12 H :    0.015005
  13 H :    0.064583
  14 H :    0.017646

  Mayer bond orders larger than 0.1
B(  0-O ,  1-C ) :   1.0623 B(  0-O ,  7-H ) :   0.9782 B(  1-C ,  2-C ) :   1.0473
B(  1-C ,  6-C ) :   0.9815 B(  1-C ,  8-H ) :   0.9094 B(  2-C ,  3-C ) :   1.0697
B(  2-C ,  9-H ) :   0.9133 B(  2-C , 10-H ) :   0.9194 B(  3-C ,  4-N ) :   1.0314
B(  3-C , 11-H ) :   0.9327 B(  3-C , 12-H ) :   0.9221 B(  4-N ,  5-N ) :   1.1244
B(  4-N ,  6-C ) :   0.1330 B(  4-N , 13-H ) :   0.9416 B(  5-N ,  6-C ) :   1.8856
B(  6-C , 14-H ) :   0.9649

FINAL SINGLE POINT ENERGY      -341.256279722772

DIPOLE MOMENT
-------------
                                X             Y             Z
Electronic contribution:      0.28121      -3.16757      -0.94523
Nuclear contribution   :     -0.37044       4.21654       1.19445
                        -----------------------------------------
Total Dipole Moment    :     -0.08923       1.04897       0.24922
                        -----------------------------------------
Magnitude (a.u.)       :      1.08186
Magnitude (Debye)      :      2.74987

                             ****ORCA TERMINATED NORMALLY****
TOTAL RUN TIME: 0 days 0 hours 0 minutes 7 seconds 190 msec
