                         Program Version 3.0.3 - RELEASE   -
|  1> ! RI PBE def2-SVP def2-SVP/J NBO PAL2
|  2> % maxcore 2000
|  3> % output
|  4>     # printlevel mini
|  5>     print[ P_Basis ] 0
|  6>     print[ P_SCFInfo ] 1
|  7>     print[ P_SCFIterInfo ] 1
|  8>     print[ P_OrbEn ] 0
|  9>     print[ P_Cartesian ] 0
| 10> end
| 11> *xyz 0 1
| 12>  O        1.0137870000     0.2880820000    -0.3453080000
| 13>  N        2.3675860000     0.2022950000    -0.1930980000
| 14>  C        3.1996600000     1.2642100000    -0.2015570000
| 15>  C        4.4825780000     0.7698360000    -0.0902760000
| 16>  C        4.3801550000    -0.6382070000    -0.0238050000
| 17>  O        5.3848250000    -1.5455720000     0.0891950000
| 18>  C        3.0500100000    -0.9792880000    -0.0948130000
| 19>  H        0.6493600000     0.2889500000     0.5492310000
| 20>  H        2.8210690000     2.2684720000    -0.2917440000
| 21>  H        5.3858810000     1.3606740000    -0.0657700000
| 22>  H        6.2221050000    -1.0766800000     0.0888940000
| 23>  H        2.5474730000    -1.9305730000    -0.1005390000
| 24> *
| 25>
| 26>                          ****END OF INPUT****
 Total Charge           Charge          ....    0
 Multiplicity           Mult            ....    1
 Number of Electrons    NEL             ....   52
 Basis Dimension        Dim             ....  123

MULLIKEN ATOMIC CHARGES
-----------------------
   0 O :   -0.174136
   1 N :   -0.036821
   2 C :    0.072090
   3 C :   -0.109269
   4 C :    0.120418
   5 O :   -0.178865
   6 C :    0.007335
   7 H :    0.189730
   8 H :   -0.006106
   9 H :   -0.033503
  10 H :    0.166569
  11 H :   -0.017442
Sum of atomic charges:    0.0000000

LOEWDIN ATOMIC CHARGES
----------------------
   0 O :   -0.042155
   1 N :    0.138913
   2 C :   -0.045460
   3 C :   -0.136737
   4 C :   -0.016700
   5 O :   -0.044860
   6 C :   -0.088848
   7 H :    0.085742
   8 H :    0.021422
   9 H :    0.021701
  10 H :    0.085586
  11 H :    0.021394

  Mayer bond orders larger than 0.1
B(  0-O ,  1-N ) :   0.9413 B(  0-O ,  7-H ) :   0.9690 B(  1-N ,  2-C ) :   1.2457
B(  1-N ,  6-C ) :   1.1397 B(  2-C ,  3-C ) :   1.3783 B(  2-C ,  6-C ) :   0.1129
B(  2-C ,  8-H ) :   0.9842 B(  3-C ,  4-C ) :   1.2972 B(  3-C ,  9-H ) :   1.0023
B(  4-C ,  5-O ) :   1.1852 B(  4-C ,  6-C ) :   1.4010 B(  5-O , 10-H ) :   0.9726
B(  6-C , 11-H ) :   0.9974

FINAL SINGLE POINT ENERGY      -359.874219156548

DIPOLE MOMENT
-------------
                                X             Y             Z
Electronic contribution:     -0.80414      -0.93302      -0.18423
Nuclear contribution   :      0.67508       1.37903       0.71499
                        -----------------------------------------
Total Dipole Moment    :     -0.12905       0.44601       0.53075
                        -----------------------------------------
Magnitude (a.u.)       :      0.70518
Magnitude (Debye)      :      1.79243

                             ****ORCA TERMINATED NORMALLY****
TOTAL RUN TIME: 0 days 0 hours 0 minutes 5 seconds 843 msec
