                         Program Version 3.0.3 - RELEASE   -
|  1> ! RI PBE def2-SVP def2-SVP/J NBO PAL2
|  2> % maxcore 2000
|  3> % output
|  4>     # printlevel mini
|  5>     print[ P_Basis ] 0
|  6>     print[ P_SCFInfo ] 1
|  7>     print[ P_SCFIterInfo ] 1
|  8>     print[ P_OrbEn ] 0
|  9>     print[ P_Cartesian ] 0
| 10> end
| 11> *xyz 0 1
| 12>  O        1.0308100000    -0.1546550000     0.2012990000
| 13>  C        2.2292920000    -0.0952700000     0.0912350000
| 14>  C        2.9765380000     1.1578500000     0.0033470000
| 15>  C        4.3037970000     1.1300330000    -0.1171320000
| 16>  O        4.9988390000    -0.0294940000    -0.1621260000
| 17>  C        4.2716540000    -1.1635140000    -0.0779340000
| 18>  N        3.0180940000    -1.2673980000     0.0379050000
| 19>  H        2.4416510000     2.0970380000     0.0372220000
| 20>  H        4.9538830000     1.9919040000    -0.1899870000
| 21>  H        4.9218420000    -2.0326970000    -0.1234380000
| 22> *
| 23>
| 24>                          ****END OF INPUT****
 Total Charge           Charge          ....    0
 Multiplicity           Mult            ....    1
 Number of Electrons    NEL             ....   50
 Basis Dimension        Dim             ....  113

MULLIKEN ATOMIC CHARGES
-----------------------
   0 O :   -0.135731
   1 C :    0.076048
   2 C :   -0.073859
   3 C :    0.158744
   4 O :   -0.166519
   5 C :    0.149208
   6 N :   -0.108519
   7 H :    0.021647
   8 H :    0.035322
   9 H :    0.043657
Sum of atomic charges:   -0.0000000

LOEWDIN ATOMIC CHARGES
----------------------
   0 O :   -0.124734
   1 C :    0.010926
   2 C :   -0.082806
   3 C :    0.071685
   4 O :    0.016707
   5 C :    0.084980
   6 N :   -0.088035
   7 H :    0.048975
   8 H :    0.034452
   9 H :    0.027850

  Mayer bond orders larger than 0.1
B(  0-O ,  1-C ) :   2.1453 B(  1-C ,  2-C ) :   1.0410 B(  1-C ,  6-N ) :   1.1007
B(  2-C ,  3-C ) :   1.6708 B(  2-C ,  7-H ) :   0.9628 B(  3-C ,  4-O ) :   1.1155
B(  3-C ,  8-H ) :   0.9705 B(  4-O ,  5-C ) :   1.1249 B(  5-C ,  6-N ) :   1.8609
B(  5-C ,  9-H ) :   0.9581

FINAL SINGLE POINT ENERGY      -358.736915406812

DIPOLE MOMENT
-------------
                                X             Y             Z
Electronic contribution:     -0.72753      -1.34943       0.08736
Nuclear contribution   :      2.36524       2.10334      -0.24872
                        -----------------------------------------
Total Dipole Moment    :      1.63771       0.75391      -0.16136
                        -----------------------------------------
Magnitude (a.u.)       :      1.81011
Magnitude (Debye)      :      4.60094

                             ****ORCA TERMINATED NORMALLY****
TOTAL RUN TIME: 0 days 0 hours 0 minutes 5 seconds 792 msec
