                         Program Version 3.0.3 - RELEASE   -
|  1> ! RI PBE def2-SVP def2-SVP/J NBO PAL2
|  2> % maxcore 2000
|  3> % output
|  4>     # printlevel mini
|  5>     print[ P_Basis ] 0
|  6>     print[ P_SCFInfo ] 1
|  7>     print[ P_SCFIterInfo ] 1
|  8>     print[ P_OrbEn ] 0
|  9>     print[ P_Cartesian ] 0
| 10> end
| 11> *xyz 0 1
| 12>  O        1.0020310000    -0.0704750000     0.1640870000
| 13>  C        2.2140150000     0.0023100000     0.1063640000
| 14>  C        2.9989450000     1.2087880000     0.0230020000
| 15>  C        4.3349570000     1.0961710000    -0.0329920000
| 16>  O        5.0099040000    -0.0548640000    -0.0178930000
| 17>  N        4.3406450000    -1.2504160000     0.0598040000
| 18>  C        3.0638480000    -1.2039380000     0.1157390000
| 19>  H        2.5234820000     2.1801180000     0.0060000000
| 20>  H        5.0209530000     1.9330150000    -0.0972190000
| 21>  H        2.5808080000    -2.1749080000     0.1760970000
| 22> *
| 23>
| 24>                          ****END OF INPUT****
 Total Charge           Charge          ....    0
 Multiplicity           Mult            ....    1
 Number of Electrons    NEL             ....   50
 Basis Dimension        Dim             ....  113

MULLIKEN ATOMIC CHARGES
-----------------------
   0 O :   -0.170654
   1 C :    0.107749
   2 C :   -0.062035
   3 C :    0.162413
   4 O :   -0.154302
   5 N :    0.082216
   6 C :   -0.068186
   7 H :    0.019927
   8 H :    0.043762
   9 H :    0.039110
Sum of atomic charges:   -0.0000000

LOEWDIN ATOMIC CHARGES
----------------------
   0 O :   -0.142668
   1 C :   -0.009881
   2 C :   -0.082735
   3 C :    0.065628
   4 O :    0.037475
   5 N :    0.027838
   6 C :   -0.029620
   7 H :    0.048164
   8 H :    0.038911
   9 H :    0.046889

  Mayer bond orders larger than 0.1
B(  0-O ,  1-C ) :   2.0572 B(  1-C ,  2-C ) :   1.0844 B(  1-C ,  6-C ) :   0.9755
B(  2-C ,  3-C ) :   1.5890 B(  2-C ,  7-H ) :   0.9730 B(  3-C ,  4-O ) :   1.1600
B(  3-C ,  8-H ) :   0.9631 B(  4-O ,  5-N ) :   0.9610 B(  5-N ,  6-C ) :   1.8669
B(  6-C ,  9-H ) :   0.9471

FINAL SINGLE POINT ENERGY      -358.684264550375

DIPOLE MOMENT
-------------
                                X             Y             Z
Electronic contribution:      0.43634      -1.24066       0.02916
Nuclear contribution   :      0.25739       1.93630      -0.08843
                        -----------------------------------------
Total Dipole Moment    :      0.69372       0.69564      -0.05927
                        -----------------------------------------
Magnitude (a.u.)       :      0.98421
Magnitude (Debye)      :      2.50167

                             ****ORCA TERMINATED NORMALLY****
TOTAL RUN TIME: 0 days 0 hours 0 minutes 5 seconds 793 msec
