                         Program Version 3.0.3 - RELEASE   -
|  1> ! RI PBE def2-SVP def2-SVP/J NBO PAL2
|  2> % maxcore 2000
|  3> % output
|  4>     # printlevel mini
|  5>     print[ P_Basis ] 0
|  6>     print[ P_SCFInfo ] 1
|  7>     print[ P_SCFIterInfo ] 1
|  8>     print[ P_OrbEn ] 0
|  9>     print[ P_Cartesian ] 0
| 10> end
| 11> *xyz 0 1
| 12>  O        1.0575830000    -0.1133140000    -0.4811300000
| 13>  C        2.2089680000     0.0150280000    -0.1443250000
| 14>  C        2.8590430000     1.3176990000     0.2249920000
| 15>  C        4.3289620000     1.1908950000    -0.0910470000
| 16>  O        4.9265310000     0.0827520000     0.5820810000
| 17>  N        4.3170580000    -1.1140920000     0.4374750000
| 18>  C        3.1049610000    -1.1490940000     0.0236330000
| 19>  H        2.7042410000     1.4834370000     1.2975030000
| 20>  H        2.3921320000     2.1423760000    -0.3155480000
| 21>  H        4.9098330000     2.0569300000     0.2241590000
| 22>  H        4.4743320000     1.0385790000    -1.1692760000
| 23>  H        2.6817580000    -2.1415950000    -0.0921260000
| 24> *
| 25>
| 26>                          ****END OF INPUT****
 Total Charge           Charge          ....    0
 Multiplicity           Mult            ....    1
 Number of Electrons    NEL             ....   52
 Basis Dimension        Dim             ....  123

MULLIKEN ATOMIC CHARGES
-----------------------
   0 O :   -0.140760
   1 C :   -0.028339
   2 C :    0.031519
   3 C :    0.124347
   4 O :   -0.235665
   5 N :    0.083311
   6 C :   -0.050765
   7 H :    0.063124
   8 H :    0.039011
   9 H :    0.039693
  10 H :    0.046106
  11 H :    0.028420
Sum of atomic charges:   -0.0000000

LOEWDIN ATOMIC CHARGES
----------------------
   0 O :   -0.102810
   1 C :    0.020878
   2 C :   -0.080930
   3 C :    0.056942
   4 O :   -0.049896
   5 N :    0.039526
   6 C :   -0.089057
   7 H :    0.054548
   8 H :    0.050399
   9 H :    0.034608
  10 H :    0.026299
  11 H :    0.039492

  Mayer bond orders larger than 0.1
B(  0-O ,  1-C ) :   2.1419 B(  1-C ,  2-C ) :   0.9847 B(  1-C ,  6-C ) :   0.9893
B(  2-C ,  3-C ) :   1.0632 B(  2-C ,  7-H ) :   0.9045 B(  2-C ,  8-H ) :   0.9018
B(  3-C ,  4-O ) :   0.9395 B(  3-C ,  9-H ) :   0.9370 B(  3-C , 10-H ) :   0.9394
B(  4-O ,  5-N ) :   1.0331 B(  4-O ,  6-C ) :   0.1214 B(  5-N ,  6-C ) :   1.8182
B(  6-C , 11-H ) :   0.9515

FINAL SINGLE POINT ENERGY      -359.881196677557

DIPOLE MOMENT
-------------
                                X             Y             Z
Electronic contribution:     -0.49280      -3.16495       0.34112
Nuclear contribution   :      0.77640       4.05002      -0.42219
                        -----------------------------------------
Total Dipole Moment    :      0.28361       0.88506      -0.08107
                        -----------------------------------------
Magnitude (a.u.)       :      0.93292
Magnitude (Debye)      :      2.37130

                             ****ORCA TERMINATED NORMALLY****
TOTAL RUN TIME: 0 days 0 hours 0 minutes 5 seconds 880 msec
