                         Program Version 3.0.3 - RELEASE   -
|  1> ! RI PBE def2-SVP def2-SVP/J NBO PAL2
|  2> % maxcore 2000
|  3> % output
|  4>     # printlevel mini
|  5>     print[ P_Basis ] 0
|  6>     print[ P_SCFInfo ] 1
|  7>     print[ P_SCFIterInfo ] 1
|  8>     print[ P_OrbEn ] 0
|  9>     print[ P_Cartesian ] 0
| 10> end
| 11> *xyz 0 1
| 12>  O        0.9808970000     0.0246770000    -0.3074920000
| 13>  C        2.3340970000     0.0137270000     0.1147720000
| 14>  C        3.0767430000     1.2864720000    -0.2523360000
| 15>  C        3.4760610000     1.1635520000    -1.7012690000
| 16>  O        4.3646800000     0.0695590000    -1.8875400000
| 17>  N        3.9481300000    -1.1332150000    -1.3928390000
| 18>  C        3.0051930000    -1.1558870000    -0.5381960000
| 19>  H        0.4936620000     0.6289700000     0.2598690000
| 20>  H        2.3855660000    -0.1553660000     1.1998080000
| 21>  H        3.9692090000     1.3964780000     0.3712260000
| 22>  H        2.4419050000     2.1618890000    -0.0919330000
| 23>  H        4.0212180000     2.0313660000    -2.0724480000
| 24>  H        2.5841770000     1.0031080000    -2.3209800000
| 25>  H        2.7180650000    -2.1553200000    -0.2249530000
| 26> *
| 27>
| 28>                          ****END OF INPUT****
 Total Charge           Charge          ....    0
 Multiplicity           Mult            ....    1
 Number of Electrons    NEL             ....   54
 Basis Dimension        Dim             ....  133

MULLIKEN ATOMIC CHARGES
-----------------------
   0 O :   -0.254951
   1 C :    0.080690
   2 C :    0.013984
   3 C :    0.151833
   4 O :   -0.255523
   5 N :    0.042422
   6 C :   -0.067250
   7 H :    0.153137
   8 H :    0.020273
   9 H :    0.026731
  10 H :    0.004926
  11 H :    0.027641
  12 H :    0.031026
  13 H :    0.025060
Sum of atomic charges:   -0.0000000

LOEWDIN ATOMIC CHARGES
----------------------
   0 O :   -0.109337
   1 C :    0.023432
   2 C :   -0.070785
   3 C :    0.051907
   4 O :   -0.074073
   5 N :    0.012011
   6 C :   -0.065829
   7 H :    0.068022
   8 H :    0.022684
   9 H :    0.034365
  10 H :    0.030410
  11 H :    0.027914
  12 H :    0.019026
  13 H :    0.030253

  Mayer bond orders larger than 0.1
B(  0-O ,  1-C ) :   1.0758 B(  0-O ,  7-H ) :   0.9768 B(  1-C ,  2-C ) :   1.0391
B(  1-C ,  6-C ) :   0.9683 B(  1-C ,  8-H ) :   0.9077 B(  2-C ,  3-C ) :   1.0703
B(  2-C ,  9-H ) :   0.9133 B(  2-C , 10-H ) :   0.9137 B(  3-C ,  4-O ) :   0.9648
B(  3-C , 11-H ) :   0.9428 B(  3-C , 12-H ) :   0.9329 B(  4-O ,  5-N ) :   0.9938
B(  4-O ,  6-C ) :   0.1276 B(  5-N ,  6-C ) :   1.9275 B(  6-C , 13-H ) :   0.9566

FINAL SINGLE POINT ENERGY      -361.068323082155

DIPOLE MOMENT
-------------
                                X             Y             Z
Electronic contribution:      1.48370      -3.13661      -1.88955
Nuclear contribution   :     -2.18495       4.19165       2.87968
                        -----------------------------------------
Total Dipole Moment    :     -0.70125       1.05504       0.99013
                        -----------------------------------------
Magnitude (a.u.)       :      1.60787
Magnitude (Debye)      :      4.08687

                             ****ORCA TERMINATED NORMALLY****
TOTAL RUN TIME: 0 days 0 hours 0 minutes 6 seconds 571 msec
