                         Program Version 3.0.3 - RELEASE   -
|  1> ! RI PBE def2-SVP def2-SVP/J NBO PAL2
|  2> % maxcore 2000
|  3> % output
|  4>     # printlevel mini
|  5>     print[ P_Basis ] 0
|  6>     print[ P_SCFInfo ] 1
|  7>     print[ P_SCFIterInfo ] 1
|  8>     print[ P_OrbEn ] 0
|  9>     print[ P_Cartesian ] 0
| 10> end
| 11> *xyz 0 1
| 12>  O        0.9401220000     0.0187330000     0.1133390000
| 13>  C        2.3513210000    -0.0235400000     0.0740890000
| 14>  C        2.9949560000    -1.0981590000     1.0003490000
| 15>  N        3.7410860000    -0.2864920000     1.9854310000
| 16>  C        4.3610410000     0.7131260000     1.0459220000
| 17>  C        2.9278980000     1.1949800000     0.7770800000
| 18>  C        2.7271420000     0.7932830000     2.2483840000
| 19>  H        0.5977430000    -0.7756620000    -0.3029880000
| 20>  H        2.7001620000    -0.0960970000    -0.9639860000
| 21>  H        3.6805250000    -1.7693210000     0.4789050000
| 22>  H        2.2284620000    -1.6917090000     1.5036080000
| 23>  H        4.9440780000     0.2804050000     0.2277550000
| 24>  H        4.9651850000     1.4304260000     1.6029580000
| 25>  H        2.6750900000     2.1723710000     0.3663990000
| 26>  H        1.7440890000     0.4446860000     2.5674480000
| 27>  H        3.1329300000     1.5175690000     2.9558070000
| 28> *
| 29>
| 30>                          ****END OF INPUT****
 Total Charge           Charge          ....    0
 Multiplicity           Mult            ....    1
 Number of Electrons    NEL             ....   54
 Basis Dimension        Dim             ....  143

MULLIKEN ATOMIC CHARGES
-----------------------
   0 O :   -0.247228
   1 C :    0.084898
   2 C :    0.156651
   3 N :   -0.319492
   4 C :    0.149679
   5 C :   -0.231087
   6 C :    0.157404
   7 H :    0.157316
   8 H :   -0.000765
   9 H :    0.005793
  10 H :   -0.002644
  11 H :    0.013027
  12 H :    0.026170
  13 H :    0.001471
  14 H :    0.021691
  15 H :    0.027116
Sum of atomic charges:    0.0000000

LOEWDIN ATOMIC CHARGES
----------------------
   0 O :   -0.113136
   1 C :    0.031640
   2 C :   -0.004001
   3 N :   -0.127493
   4 C :    0.034899
   5 C :   -0.045408
   6 C :    0.036724
   7 H :    0.070113
   8 H :    0.003031
   9 H :    0.016544
  10 H :    0.017794
  11 H :    0.010153
  12 H :    0.021823
  13 H :    0.013757
  14 H :    0.012736
  15 H :    0.020825

  Mayer bond orders larger than 0.1
B(  0-O ,  1-C ) :   1.1337 B(  0-O ,  7-H ) :   0.9798 B(  1-C ,  2-C ) :   0.9780
B(  1-C ,  5-C ) :   1.0203 B(  1-C ,  8-H ) :   0.9217 B(  2-C ,  3-N ) :   1.0410
B(  2-C ,  9-H ) :   0.9210 B(  2-C , 10-H ) :   0.9087 B(  3-N ,  4-C ) :   0.9622
B(  3-N ,  6-C ) :   0.9613 B(  4-C ,  5-C ) :   0.9830 B(  4-C , 11-H ) :   0.9356
B(  4-C , 12-H ) :   0.9440 B(  5-C ,  6-C ) :   0.9897 B(  5-C , 13-H ) :   0.9550
B(  6-C , 14-H ) :   0.9325 B(  6-C , 15-H ) :   0.9493

FINAL SINGLE POINT ENERGY      -325.206555219036

DIPOLE MOMENT
-------------
                                X             Y             Z
Electronic contribution:     -1.33615      -0.10130      -0.01886
Nuclear contribution   :      1.24683      -0.01526      -0.60522
                        -----------------------------------------
Total Dipole Moment    :     -0.08933      -0.11656      -0.62408
                        -----------------------------------------
Magnitude (a.u.)       :      0.64113
Magnitude (Debye)      :      1.62961

                             ****ORCA TERMINATED NORMALLY****
TOTAL RUN TIME: 0 days 0 hours 0 minutes 7 seconds 238 msec
