                         Program Version 3.0.3 - RELEASE   -
|  1> ! RI PBE def2-SVP def2-SVP/J NBO PAL2
|  2> % maxcore 2000
|  3> % output
|  4>     # printlevel mini
|  5>     print[ P_Basis ] 0
|  6>     print[ P_SCFInfo ] 1
|  7>     print[ P_SCFIterInfo ] 1
|  8>     print[ P_OrbEn ] 0
|  9>     print[ P_Cartesian ] 0
| 10> end
| 11> *xyz 0 1
| 12>  O        1.0546640000     0.0737000000    -0.0083560000
| 13>  C        2.2508150000     0.1239150000    -0.0361330000
| 14>  C        3.2771920000    -1.0164030000    -0.0104370000
| 15>  N        4.5451170000    -0.2588360000    -0.0694180000
| 16>  C        4.1968800000     0.7566500000    -1.1221840000
| 17>  C        3.1742650000     1.3178780000    -0.1058770000
| 18>  C        4.2405690000     0.8416080000     0.9088750000
| 19>  H        3.1709820000    -1.6836210000    -0.8683670000
| 20>  H        3.2090960000    -1.6093800000     0.9040300000
| 21>  H        3.8376450000     0.3454300000    -2.0683210000
| 22>  H        5.0405250000     1.4267740000    -1.2929920000
| 23>  H        2.7224470000     2.3062920000    -0.1374970000
| 24>  H        3.9230310000     0.5114470000     1.9005850000
| 25>  H        5.0895730000     1.5221260000     0.9867720000
| 26> *
| 27>
| 28>                          ****END OF INPUT****
 Total Charge           Charge          ....    0
 Multiplicity           Mult            ....    1
 Number of Electrons    NEL             ....   52
 Basis Dimension        Dim             ....  133

MULLIKEN ATOMIC CHARGES
-----------------------
   0 O :   -0.124919
   1 C :    0.013367
   2 C :    0.128572
   3 N :   -0.317466
   4 C :    0.150673
   5 C :   -0.218678
   6 C :    0.145849
   7 H :    0.042060
   8 H :    0.041426
   9 H :    0.033087
  10 H :    0.035236
  11 H :    0.000173
  12 H :    0.034052
  13 H :    0.036569
Sum of atomic charges:   -0.0000000

LOEWDIN ATOMIC CHARGES
----------------------
   0 O :   -0.108103
   1 C :    0.040930
   2 C :   -0.013666
   3 N :   -0.124499
   4 C :    0.045911
   5 C :   -0.064749
   6 C :    0.045076
   7 H :    0.036342
   8 H :    0.036329
   9 H :    0.016700
  10 H :    0.026042
  11 H :    0.020567
  12 H :    0.016845
  13 H :    0.026274

  Mayer bond orders larger than 0.1
B(  0-O ,  1-C ) :   2.2490 B(  1-C ,  2-C ) :   0.8953 B(  1-C ,  5-C ) :   0.9145
B(  2-C ,  3-N ) :   1.0118 B(  2-C ,  7-H ) :   0.9172 B(  2-C ,  8-H ) :   0.9167
B(  3-N ,  4-C ) :   0.9657 B(  3-N ,  6-C ) :   0.9655 B(  4-C ,  5-C ) :   0.9521
B(  4-C ,  9-H ) :   0.9432 B(  4-C , 10-H ) :   0.9401 B(  5-C ,  6-C ) :   0.9521
B(  5-C , 11-H ) :   0.9698 B(  6-C , 12-H ) :   0.9437 B(  6-C , 13-H ) :   0.9405

FINAL SINGLE POINT ENERGY      -324.016278809084

DIPOLE MOMENT
-------------
                                X             Y             Z
Electronic contribution:     -3.48480      -0.57692       0.09857
Nuclear contribution   :      4.09256       0.96894      -0.12832
                        -----------------------------------------
Total Dipole Moment    :      0.60776       0.39202      -0.02975
                        -----------------------------------------
Magnitude (a.u.)       :      0.72384
Magnitude (Debye)      :      1.83984

                             ****ORCA TERMINATED NORMALLY****
TOTAL RUN TIME: 0 days 0 hours 0 minutes 6 seconds 480 msec
