                         Program Version 3.0.3 - RELEASE   -
|  1> ! RI PBE def2-SVP def2-SVP/J NBO PAL2
|  2> % maxcore 2000
|  3> % output
|  4>     # printlevel mini
|  5>     print[ P_Basis ] 0
|  6>     print[ P_SCFInfo ] 1
|  7>     print[ P_SCFIterInfo ] 1
|  8>     print[ P_OrbEn ] 0
|  9>     print[ P_Cartesian ] 0
| 10> end
| 11> *xyz 0 1
| 12>  O        1.1222670000    -0.0366680000     0.4684990000
| 13>  C        2.2870230000    -0.0401310000     0.2548030000
| 14>  C        3.3617310000     1.0087400000     0.0154940000
| 15>  N        4.2620190000    -0.0748090000    -0.4174340000
| 16>  C        3.3644440000    -1.1418890000     0.0787460000
| 17>  C        3.0984690000    -2.2517530000    -0.8067260000
| 18>  C        2.8480210000    -3.1728370000    -1.5337200000
| 19>  H        3.6328220000     1.5189190000     0.9491240000
| 20>  H        3.1412130000     1.7580220000    -0.7491550000
| 21>  H        5.1773230000    -0.0724310000     0.0106290000
| 22>  H        3.6288140000    -1.5189740000     1.0789670000
| 23>  H        2.6284640000    -3.9856990000    -2.1849160000
| 24> *
| 25>
| 26>                          ****END OF INPUT****
 Total Charge           Charge          ....    0
 Multiplicity           Mult            ....    1
 Number of Electrons    NEL             ....   50
 Basis Dimension        Dim             ....  123

MULLIKEN ATOMIC CHARGES
-----------------------
   0 O :   -0.087898
   1 C :   -0.035175
   2 C :    0.120509
   3 N :   -0.237129
   4 C :   -0.020331
   5 C :    0.477600
   6 C :   -0.479402
   7 H :    0.041668
   8 H :    0.054104
   9 H :    0.109424
  10 H :    0.050778
  11 H :    0.005852
Sum of atomic charges:   -0.0000000

LOEWDIN ATOMIC CHARGES
----------------------
   0 O :   -0.063506
   1 C :    0.068675
   2 C :   -0.004702
   3 N :   -0.094474
   4 C :   -0.029276
   5 C :   -0.024963
   6 C :   -0.057590
   7 H :    0.031245
   8 H :    0.035578
   9 H :    0.056448
  10 H :    0.045526
  11 H :    0.037039

  Mayer bond orders larger than 0.1
B(  0-O ,  1-C ) :   2.2951 B(  1-C ,  2-C ) :   0.9564 B(  1-C ,  4-C ) :   0.8447
B(  2-C ,  3-N ) :   1.0382 B(  2-C ,  7-H ) :   0.9072 B(  2-C ,  8-H ) :   0.9245
B(  3-N ,  4-C ) :   1.0779 B(  3-N ,  9-H ) :   0.9250 B(  4-C ,  5-C ) :   0.9856
B(  4-C , 10-H ) :   0.8476 B(  5-C ,  6-C ) :   2.3062 B(  5-C , 11-H ) :  -0.1075
B(  6-C , 11-H ) :   1.0973

FINAL SINGLE POINT ENERGY      -322.766754790644

DIPOLE MOMENT
-------------
                                X             Y             Z
Electronic contribution:     -2.56981      -1.16248       0.09591
Nuclear contribution   :      3.46574       1.36770       0.31258
                        -----------------------------------------
Total Dipole Moment    :      0.89594       0.20522       0.40849
                        -----------------------------------------
Magnitude (a.u.)       :      1.00582
Magnitude (Debye)      :      2.55660

                             ****ORCA TERMINATED NORMALLY****
TOTAL RUN TIME: 0 days 0 hours 0 minutes 5 seconds 708 msec
