                         Program Version 3.0.3 - RELEASE   -
|  1> ! RI PBE def2-SVP def2-SVP/J NBO PAL2
|  2> % maxcore 2000
|  3> % output
|  4>     # printlevel mini
|  5>     print[ P_Basis ] 0
|  6>     print[ P_SCFInfo ] 1
|  7>     print[ P_SCFIterInfo ] 1
|  8>     print[ P_OrbEn ] 0
|  9>     print[ P_Cartesian ] 0
| 10> end
| 11> *xyz 0 1
| 12>  O        1.0253450000     0.5961750000     0.0505260000
| 13>  C        2.3797670000     0.2797520000     0.1359460000
| 14>  C        3.2231100000     0.9612740000     1.2478110000
| 15>  N        3.8981030000    -0.3229210000     1.4642060000
| 16>  C        2.7803370000    -1.0428820000     0.8446380000
| 17>  C        3.0128990000     0.4098580000    -1.2063860000
| 18>  C        2.3835960000     0.7714560000    -2.3138910000
| 19>  H        0.6373030000     0.5061670000     0.9243660000
| 20>  H        2.5664850000     1.2752050000     2.0735970000
| 21>  H        3.8718910000     1.7944290000     0.9668790000
| 22>  H        4.1084010000    -0.5623490000     2.4235030000
| 23>  H        1.9878430000    -1.3440610000     1.5466780000
| 24>  H        3.0559580000    -1.8988170000     0.2238370000
| 25>  H        4.0745330000     0.1776890000    -1.2177340000
| 26>  H        1.3258100000     1.0039740000    -2.3086440000
| 27>  H        2.9137980000     0.8437600000    -3.2561240000
| 28> *
| 29>
| 30>                          ****END OF INPUT****
 Total Charge           Charge          ....    0
 Multiplicity           Mult            ....    1
 Number of Electrons    NEL             ....   54
 Basis Dimension        Dim             ....  143

MULLIKEN ATOMIC CHARGES
-----------------------
   0 O :   -0.208272
   1 C :   -0.191214
   2 C :    0.194877
   3 N :   -0.269090
   4 C :    0.198818
   5 C :    0.000882
   6 C :   -0.013748
   7 H :    0.152544
   8 H :   -0.020610
   9 H :    0.017827
  10 H :    0.095944
  11 H :   -0.021356
  12 H :    0.014961
  13 H :    0.001020
  14 H :    0.029332
  15 H :    0.018084
Sum of atomic charges:   -0.0000000

LOEWDIN ATOMIC CHARGES
----------------------
   0 O :   -0.078204
   1 C :    0.009607
   2 C :    0.022112
   3 N :   -0.107483
   4 C :    0.022618
   5 C :   -0.031839
   6 C :   -0.057107
   7 H :    0.063663
   8 H :    0.000217
   9 H :    0.013292
  10 H :    0.049039
  11 H :    0.000160
  12 H :    0.012562
  13 H :    0.031796
  14 H :    0.025467
  15 H :    0.024101

  Mayer bond orders larger than 0.1
B(  0-O ,  1-C ) :   1.1542 B(  0-O ,  7-H ) :   0.9661 B(  1-C ,  2-C ) :   0.9805
B(  1-C ,  4-C ) :   0.9777 B(  1-C ,  5-C ) :   0.9791 B(  2-C ,  3-N ) :   1.0398
B(  2-C ,  8-H ) :   0.9077 B(  2-C ,  9-H ) :   0.9345 B(  3-N ,  4-C ) :   1.0403
B(  3-N , 10-H ) :   0.9390 B(  4-C , 11-H ) :   0.9073 B(  4-C , 12-H ) :   0.9343
B(  5-C ,  6-C ) :   2.0026 B(  5-C , 13-H ) :   0.9444 B(  6-C , 14-H ) :   0.9367
B(  6-C , 15-H ) :   0.9357

FINAL SINGLE POINT ENERGY      -325.205232118005

DIPOLE MOMENT
-------------
                                X             Y             Z
Electronic contribution:     -0.89507       0.16055       0.21545
Nuclear contribution   :      0.75595      -0.30536       0.68637
                        -----------------------------------------
Total Dipole Moment    :     -0.13912      -0.14482       0.90182
                        -----------------------------------------
Magnitude (a.u.)       :      0.92390
Magnitude (Debye)      :      2.34837

                             ****ORCA TERMINATED NORMALLY****
TOTAL RUN TIME: 0 days 0 hours 0 minutes 7 seconds 275 msec
