                         Program Version 3.0.3 - RELEASE   -
|  1> ! RI PBE def2-SVP def2-SVP/J NBO PAL2
|  2> % maxcore 2000
|  3> % output
|  4>     # printlevel mini
|  5>     print[ P_Basis ] 0
|  6>     print[ P_SCFInfo ] 1
|  7>     print[ P_SCFIterInfo ] 1
|  8>     print[ P_OrbEn ] 0
|  9>     print[ P_Cartesian ] 0
| 10> end
| 11> *xyz 0 1
| 12>  O        0.9170760000    -0.0110740000     0.2573680000
| 13>  C        2.3114100000    -0.0108670000     0.1367620000
| 14>  C        3.1155470000     1.0386640000     0.9521830000
| 15>  N        4.0818310000    -0.0107870000     1.2901830000
| 16>  C        3.1158550000    -1.0604090000     0.9518450000
| 17>  C        2.6430250000    -0.0106060000    -1.2781300000
| 18>  C        2.9442310000    -0.0104190000    -2.4388060000
| 19>  H        0.7018810000    -0.0115960000     1.1946730000
| 20>  H        2.5041880000     1.3923880000     1.7958410000
| 21>  H        3.5223230000     1.8966010000     0.4139240000
| 22>  H        4.4250520000    -0.0108980000     2.2406200000
| 23>  H        2.5046220000    -1.4145890000     1.7954080000
| 24>  H        3.5228770000    -1.9180460000     0.4132980000
| 25>  H        3.2055820000    -0.0102510000    -3.4704780000
| 26> *
| 27>
| 28>                          ****END OF INPUT****
 Total Charge           Charge          ....    0
 Multiplicity           Mult            ....    1
 Number of Electrons    NEL             ....   52
 Basis Dimension        Dim             ....  133

MULLIKEN ATOMIC CHARGES
-----------------------
   0 O :   -0.204130
   1 C :   -0.259516
   2 C :    0.221244
   3 N :   -0.265298
   4 C :    0.221245
   5 C :    0.530473
   6 C :   -0.504582
   7 H :    0.151517
   8 H :   -0.018484
   9 H :    0.022973
  10 H :    0.098880
  11 H :   -0.018491
  12 H :    0.022976
  13 H :    0.001192
Sum of atomic charges:   -0.0000000

LOEWDIN ATOMIC CHARGES
----------------------
   0 O :   -0.076956
   1 C :    0.001135
   2 C :    0.030065
   3 N :   -0.104622
   4 C :    0.030067
   5 C :   -0.006012
   6 C :   -0.063821
   7 H :    0.062615
   8 H :    0.002215
   9 H :    0.018574
  10 H :    0.049854
  11 H :    0.002213
  12 H :    0.018575
  13 H :    0.036098

  Mayer bond orders larger than 0.1
B(  0-O ,  1-C ) :   1.1600 B(  0-O ,  7-H ) :   0.9677 B(  1-C ,  2-C ) :   0.9983
B(  1-C ,  4-C ) :   0.9983 B(  1-C ,  5-C ) :   0.8745 B(  2-C ,  3-N ) :   1.0540
B(  2-C ,  8-H ) :   0.9037 B(  2-C ,  9-H ) :   0.9287 B(  3-N ,  4-C ) :   1.0540
B(  3-N , 10-H ) :   0.9401 B(  4-C , 11-H ) :   0.9037 B(  4-C , 12-H ) :   0.9287
B(  5-C ,  6-C ) :   2.3034 B(  5-C , 13-H ) :  -0.1135 B(  6-C , 13-H ) :   1.1025

FINAL SINGLE POINT ENERGY      -323.953990238387

DIPOLE MOMENT
-------------
                                X             Y             Z
Electronic contribution:     -1.32994       0.00035      -2.75271
Nuclear contribution   :      1.38289      -0.00070       3.68398
                        -----------------------------------------
Total Dipole Moment    :      0.05295      -0.00036       0.93127
                        -----------------------------------------
Magnitude (a.u.)       :      0.93277
Magnitude (Debye)      :      2.37091

                             ****ORCA TERMINATED NORMALLY****
TOTAL RUN TIME: 0 days 0 hours 0 minutes 6 seconds 671 msec
