                         Program Version 3.0.3 - RELEASE   -
|  1> ! RI PBE def2-SVP def2-SVP/J NBO PAL2
|  2> % maxcore 2000
|  3> % output
|  4>     # printlevel mini
|  5>     print[ P_Basis ] 0
|  6>     print[ P_SCFInfo ] 1
|  7>     print[ P_SCFIterInfo ] 1
|  8>     print[ P_OrbEn ] 0
|  9>     print[ P_Cartesian ] 0
| 10> end
| 11> *xyz 0 1
| 12>  O        1.0188710000    -0.1667890000     0.4392480000
| 13>  C        2.3756270000     0.0842010000     0.2246290000
| 14>  C        3.0518780000     1.2417750000     0.9772710000
| 15>  N        4.1935340000     0.3440500000     1.2135010000
| 16>  C        3.3361900000    -0.8389280000     0.9999350000
| 17>  C        3.9654800000    -1.9913670000     0.3084230000
| 18>  C        3.7791810000    -3.2603450000     0.6453480000
| 19>  H        0.5132980000     0.1595370000    -0.3074630000
| 20>  H        2.6257000000     0.0974630000    -0.8412270000
| 21>  H        2.4712630000     1.4879320000     1.8757340000
| 22>  H        3.2878470000     2.1580550000     0.4295150000
| 23>  H        4.6282860000     0.4058740000     2.1248510000
| 24>  H        2.8152790000    -1.1741800000     1.9088090000
| 25>  H        4.6059590000    -1.7348720000    -0.5331960000
| 26>  H        3.1532760000    -3.5331630000     1.4896590000
| 27>  H        4.2380510000    -4.0710520000     0.0912630000
| 28> *
| 29>
| 30>                          ****END OF INPUT****
 Total Charge           Charge          ....    0
 Multiplicity           Mult            ....    1
 Number of Electrons    NEL             ....   54
 Basis Dimension        Dim             ....  143

MULLIKEN ATOMIC CHARGES
-----------------------
   0 O :   -0.226150
   1 C :    0.037948
   2 C :    0.166217
   3 N :   -0.257310
   4 C :    0.008070
   5 C :    0.019563
   6 C :   -0.016884
   7 H :    0.160742
   8 H :   -0.004873
   9 H :   -0.005702
  10 H :    0.003740
  11 H :    0.098078
  12 H :   -0.012089
  13 H :   -0.010063
  14 H :    0.019068
  15 H :    0.019643
Sum of atomic charges:    0.0000000

LOEWDIN ATOMIC CHARGES
----------------------
   0 O :   -0.099084
   1 C :    0.048699
   2 C :    0.007601
   3 N :   -0.103504
   4 C :    0.005968
   5 C :   -0.038049
   6 C :   -0.054590
   7 H :    0.075223
   8 H :    0.010390
   9 H :    0.006383
  10 H :    0.007090
  11 H :    0.048509
  12 H :    0.013485
  13 H :    0.025087
  14 H :    0.022357
  15 H :    0.024435

  Mayer bond orders larger than 0.1
B(  0-O ,  1-C ) :   1.1725 B(  0-O ,  7-H ) :   0.9780 B(  1-C ,  2-C ) :   1.0401
B(  1-C ,  4-C ) :   0.9868 B(  1-C ,  8-H ) :   0.8931 B(  2-C ,  3-N ) :   1.0424
B(  2-C ,  9-H ) :   0.9082 B(  2-C , 10-H ) :   0.9345 B(  3-N ,  4-C ) :   0.9887
B(  3-N , 11-H ) :   0.9398 B(  4-C ,  5-C ) :   1.0592 B(  4-C , 12-H ) :   0.9016
B(  5-C ,  6-C ) :   1.9753 B(  5-C , 13-H ) :   0.9413 B(  6-C , 14-H ) :   0.9481
B(  6-C , 15-H ) :   0.9331

FINAL SINGLE POINT ENERGY      -325.205452485073

DIPOLE MOMENT
-------------
                                X             Y             Z
Electronic contribution:     -1.11901       0.86979      -0.22991
Nuclear contribution   :      0.85025      -0.58495       0.04135
                        -----------------------------------------
Total Dipole Moment    :     -0.26877       0.28484      -0.18856
                        -----------------------------------------
Magnitude (a.u.)       :      0.43465
Magnitude (Debye)      :      1.10480

                             ****ORCA TERMINATED NORMALLY****
TOTAL RUN TIME: 0 days 0 hours 0 minutes 7 seconds 107 msec
