                         Program Version 3.0.3 - RELEASE   -
|  1> ! RI PBE def2-SVP def2-SVP/J NBO PAL2
|  2> % maxcore 2000
|  3> % output
|  4>     # printlevel mini
|  5>     print[ P_Basis ] 0
|  6>     print[ P_SCFInfo ] 1
|  7>     print[ P_SCFIterInfo ] 1
|  8>     print[ P_OrbEn ] 0
|  9>     print[ P_Cartesian ] 0
| 10> end
| 11> *xyz 0 1
| 12>  O        0.9145040000     0.2360580000     0.1140610000
| 13>  C        2.3015240000     0.1290620000     0.0923490000
| 14>  C        3.0407930000     1.0796400000     1.0310250000
| 15>  N        3.9784840000    -0.0150890000     1.3357770000
| 16>  C        2.9781930000    -1.0103630000     0.9054100000
| 17>  C        3.4660760000    -2.1874820000     0.2166220000
| 18>  C        3.8396550000    -3.1627020000    -0.3770000000
| 19>  H        0.5474860000    -0.3016320000    -0.5921990000
| 20>  H        2.7071650000     0.1615680000    -0.9232490000
| 21>  H        2.3828300000     1.3626120000     1.8626130000
| 22>  H        3.4981280000     1.9736530000     0.6031000000
| 23>  H        4.2718970000    -0.0940380000     2.3006530000
| 24>  H        2.2854190000    -1.3090910000     1.7054210000
| 25>  H        4.1832460000    -4.0247880000    -0.8980940000
| 26> *
| 27>
| 28>                          ****END OF INPUT****
 Total Charge           Charge          ....    0
 Multiplicity           Mult            ....    1
 Number of Electrons    NEL             ....   52
 Basis Dimension        Dim             ....  133

MULLIKEN ATOMIC CHARGES
-----------------------
   0 O :   -0.223929
   1 C :    0.018557
   2 C :    0.177876
   3 N :   -0.249737
   4 C :    0.014386
   5 C :    0.474418
   6 C :   -0.520397
   7 H :    0.163829
   8 H :    0.007517
   9 H :    0.003758
  10 H :    0.014327
  11 H :    0.102916
  12 H :    0.015488
  13 H :    0.000992
Sum of atomic charges:   -0.0000000

LOEWDIN ATOMIC CHARGES
----------------------
   0 O :   -0.094034
   1 C :    0.055855
   2 C :    0.022792
   3 N :   -0.093366
   4 C :   -0.014267
   5 C :   -0.027787
   6 C :   -0.080496
   7 H :    0.078706
   8 H :    0.014826
   9 H :    0.011456
  10 H :    0.014310
  11 H :    0.051235
  12 H :    0.026324
  13 H :    0.034443

  Mayer bond orders larger than 0.1
B(  0-O ,  1-C ) :   1.1664 B(  0-O ,  7-H ) :   0.9769 B(  1-C ,  2-C ) :   1.0591
B(  1-C ,  4-C ) :   0.9728 B(  1-C ,  8-H ) :   0.8972 B(  2-C ,  3-N ) :   1.0357
B(  2-C ,  9-H ) :   0.9109 B(  2-C , 10-H ) :   0.9354 B(  3-N ,  4-C ) :   1.0481
B(  3-N , 11-H ) :   0.9352 B(  4-C ,  5-C ) :   0.9628 B(  4-C , 12-H ) :   0.8611
B(  5-C ,  6-C ) :   2.2759 B(  5-C , 13-H ) :  -0.1088 B(  6-C , 13-H ) :   1.0980

FINAL SINGLE POINT ENERGY      -323.960495791021

DIPOLE MOMENT
-------------
                                X             Y             Z
Electronic contribution:     -0.11005      -2.11018      -0.69361
Nuclear contribution   :     -0.17960       2.01771       0.62378
                        -----------------------------------------
Total Dipole Moment    :     -0.28965      -0.09247      -0.06983
                        -----------------------------------------
Magnitude (a.u.)       :      0.31197
Magnitude (Debye)      :      0.79297

                             ****ORCA TERMINATED NORMALLY****
TOTAL RUN TIME: 0 days 0 hours 0 minutes 6 seconds 629 msec
