                         Program Version 3.0.3 - RELEASE   -
|  1> ! RI PBE def2-SVP def2-SVP/J NBO PAL2
|  2> % maxcore 2000
|  3> % output
|  4>     # printlevel mini
|  5>     print[ P_Basis ] 0
|  6>     print[ P_SCFInfo ] 1
|  7>     print[ P_SCFIterInfo ] 1
|  8>     print[ P_OrbEn ] 0
|  9>     print[ P_Cartesian ] 0
| 10> end
| 11> *xyz 0 1
| 12>  O        1.1427450000    -0.1087780000     0.4323110000
| 13>  C        2.2965750000    -0.1010770000     0.1780660000
| 14>  C        3.3677180000     0.9472230000    -0.0722740000
| 15>  N        4.2616790000    -0.1333110000    -0.5281390000
| 16>  C        3.3743820000    -1.2022200000    -0.0466940000
| 17>  C        3.0839670000    -2.2698360000    -0.9859370000
| 18>  N        2.8351670000    -3.1158110000    -1.7232840000
| 19>  H        3.6569410000     1.4524640000     0.8580050000
| 20>  H        3.1331420000     1.6990100000    -0.8299700000
| 21>  H        5.1869410000    -0.1401350000    -0.1232060000
| 22>  H        3.6468430000    -1.6431100000     0.9227320000
| 23> *
| 24>
| 25>                          ****END OF INPUT****
 Total Charge           Charge          ....    0
 Multiplicity           Mult            ....    1
 Number of Electrons    NEL             ....   50
 Basis Dimension        Dim             ....  118

MULLIKEN ATOMIC CHARGES
-----------------------
   0 O :   -0.071587
   1 C :   -0.028426
   2 C :    0.130381
   3 N :   -0.230301
   4 C :   -0.077575
   5 C :   -0.103798
   6 N :    0.081785
   7 H :    0.050587
   8 H :    0.063255
   9 H :    0.118377
  10 H :    0.067302
Sum of atomic charges:    0.0000000

LOEWDIN ATOMIC CHARGES
----------------------
   0 O :   -0.047793
   1 C :    0.071608
   2 C :    0.001385
   3 N :   -0.083959
   4 C :   -0.044253
   5 C :   -0.045228
   6 N :   -0.042653
   7 H :    0.035827
   8 H :    0.040587
   9 H :    0.061829
  10 H :    0.052649

  Mayer bond orders larger than 0.1
B(  0-O ,  1-C ) :   2.3039 B(  1-C ,  2-C ) :   0.9676 B(  1-C ,  4-C ) :   0.8538
B(  2-C ,  3-N ) :   1.0356 B(  2-C ,  7-H ) :   0.9095 B(  2-C ,  8-H ) :   0.9243
B(  3-N ,  4-C ) :   1.1574 B(  3-N ,  9-H ) :   0.9241 B(  4-C ,  5-C ) :   1.0909
B(  4-C , 10-H ) :   0.8405 B(  5-C ,  6-N ) :   3.0677

FINAL SINGLE POINT ENERGY      -338.843214608340

DIPOLE MOMENT
-------------
                                X             Y             Z
Electronic contribution:     -2.60606      -3.08778      -0.97929
Nuclear contribution   :      3.74115       4.30819       2.14344
                        -----------------------------------------
Total Dipole Moment    :      1.13508       1.22041       1.16416
                        -----------------------------------------
Magnitude (a.u.)       :      2.03299
Magnitude (Debye)      :      5.16746

                             ****ORCA TERMINATED NORMALLY****
TOTAL RUN TIME: 0 days 0 hours 0 minutes 5 seconds 490 msec
