                         Program Version 3.0.3 - RELEASE   -
|  1> ! RI PBE def2-SVP def2-SVP/J NBO PAL2
|  2> % maxcore 2000
|  3> % output
|  4>     # printlevel mini
|  5>     print[ P_Basis ] 0
|  6>     print[ P_SCFInfo ] 1
|  7>     print[ P_SCFIterInfo ] 1
|  8>     print[ P_OrbEn ] 0
|  9>     print[ P_Cartesian ] 0
| 10> end
| 11> *xyz 0 1
| 12>  O        0.7861800000     0.0358090000     0.1010490000
| 13>  C        2.1775900000     0.0362060000     0.0555890000
| 14>  C        2.9661580000     1.0861270000     0.8819040000
| 15>  N        3.9296930000     0.0364710000     1.2207530000
| 16>  C        2.9667190000    -1.0135940000     0.8816240000
| 17>  C        2.5677340000     0.0365010000    -1.3521800000
| 18>  N        2.9030490000     0.0366200000    -2.4507880000
| 19>  H        0.5172530000     0.0363100000     1.0244760000
| 20>  H        2.3366160000     1.4269350000     1.7172210000
| 21>  H        3.3741260000     1.9514970000     0.3570670000
| 22>  H        4.2843020000     0.0364420000     2.1667990000
| 23>  H        2.3372660000    -1.3548910000     1.7168110000
| 24>  H        3.3750920000    -1.8786340000     0.3565650000
| 25> *
| 26>
| 27>                          ****END OF INPUT****
 Total Charge           Charge          ....    0
 Multiplicity           Mult            ....    1
 Number of Electrons    NEL             ....   52
 Basis Dimension        Dim             ....  128

MULLIKEN ATOMIC CHARGES
-----------------------
   0 O :   -0.191637
   1 C :   -0.321613
   2 C :    0.217394
   3 N :   -0.260752
   4 C :    0.217415
   5 C :   -0.058890
   6 N :    0.074385
   7 H :    0.161241
   8 H :   -0.007916
   9 H :    0.036394
  10 H :    0.105506
  11 H :   -0.007915
  12 H :    0.036388
Sum of atomic charges:   -0.0000000

LOEWDIN ATOMIC CHARGES
----------------------
   0 O :   -0.064966
   1 C :   -0.014302
   2 C :    0.033887
   3 N :   -0.099395
   4 C :    0.033889
   5 C :   -0.027603
   6 N :   -0.046097
   7 H :    0.069657
   8 H :    0.006669
   9 H :    0.023794
  10 H :    0.054009
  11 H :    0.006670
  12 H :    0.023788

  Mayer bond orders larger than 0.1
B(  0-O ,  1-C ) :   1.2105 B(  0-O ,  7-H ) :   0.9651 B(  1-C ,  2-C ) :   1.0117
B(  1-C ,  4-C ) :   1.0116 B(  1-C ,  5-C ) :   0.9873 B(  2-C ,  3-N ) :   1.0471
B(  2-C ,  8-H ) :   0.9051 B(  2-C ,  9-H ) :   0.9294 B(  3-N ,  4-C ) :   1.0471
B(  3-N , 10-H ) :   0.9386 B(  4-C , 11-H ) :   0.9051 B(  4-C , 12-H ) :   0.9294
B(  5-C ,  6-N ) :   3.0926

FINAL SINGLE POINT ENERGY      -340.031545131597

DIPOLE MOMENT
-------------
                                X             Y             Z
Electronic contribution:     -0.98033       0.00023      -4.85735
Nuclear contribution   :      0.69377      -0.00010       7.03018
                        -----------------------------------------
Total Dipole Moment    :     -0.28656       0.00013       2.17283
                        -----------------------------------------
Magnitude (a.u.)       :      2.19164
Magnitude (Debye)      :      5.57072

                             ****ORCA TERMINATED NORMALLY****
TOTAL RUN TIME: 0 days 0 hours 0 minutes 6 seconds 182 msec
