                         Program Version 3.0.3 - RELEASE   -
|  1> ! RI PBE def2-SVP def2-SVP/J NBO PAL2
|  2> % maxcore 2000
|  3> % output
|  4>     # printlevel mini
|  5>     print[ P_Basis ] 0
|  6>     print[ P_SCFInfo ] 1
|  7>     print[ P_SCFIterInfo ] 1
|  8>     print[ P_OrbEn ] 0
|  9>     print[ P_Cartesian ] 0
| 10> end
| 11> *xyz 0 1
| 12>  O        0.9759580000     0.0167700000     0.5216400000
| 13>  C        2.3096520000     0.0683120000     0.1039640000
| 14>  C        3.2077100000     1.1377490000     0.7775850000
| 15>  N        3.9387000000     0.0549960000     1.4184370000
| 16>  C        3.1615080000    -1.0052710000     0.8008960000
| 17>  C        5.2119730000     0.0149250000     1.8794820000
| 18>  N        5.9278340000    -1.0046340000     2.1406340000
| 19>  H        0.4716960000     0.6821030000     0.0465220000
| 20>  H        2.3889690000     0.0557210000    -0.9871330000
| 21>  H        2.6646470000     1.7873540000     1.4714850000
| 22>  H        3.8053990000     1.7463630000     0.0904750000
| 23>  H        2.5902180000    -1.6201920000     1.5025570000
| 24>  H        3.7419420000    -1.6525840000     0.1335840000
| 25>  H        5.6332630000     1.0099600000     2.0477040000
| 26>  H        5.4230110000    -1.8717010000     1.9538780000
| 27> *
| 28>
| 29>                          ****END OF INPUT****
 Total Charge           Charge          ....    0
 Multiplicity           Mult            ....    1
 Number of Electrons    NEL             ....   54
 Basis Dimension        Dim             ....  138

MULLIKEN ATOMIC CHARGES
-----------------------
   0 O :   -0.234837
   1 C :   -0.131753
   2 C :    0.269972
   3 N :   -0.307744
   4 C :    0.235502
   5 C :    0.019083
   6 N :   -0.168275
   7 H :    0.162886
   8 H :    0.015608
   9 H :    0.005756
  10 H :    0.014145
  11 H :    0.028363
  12 H :    0.016814
  13 H :    0.002828
  14 H :    0.071652
Sum of atomic charges:    0.0000000

LOEWDIN ATOMIC CHARGES
----------------------
   0 O :   -0.098144
   1 C :    0.043812
   2 C :    0.030136
   3 N :   -0.055658
   4 C :    0.035423
   5 C :    0.005735
   6 N :   -0.173213
   7 H :    0.075489
   8 H :    0.010273
   9 H :    0.018525
  10 H :    0.015707
  11 H :    0.026071
  12 H :    0.016313
  13 H :    0.012678
  14 H :    0.036854

  Mayer bond orders larger than 0.1
B(  0-O ,  1-C ) :   1.1086 B(  0-O ,  7-H ) :   0.9774 B(  1-C ,  2-C ) :   1.0453
B(  1-C ,  4-C ) :   1.0606 B(  1-C ,  8-H ) :   0.9050 B(  2-C ,  3-N ) :   1.0115
B(  2-C ,  9-H ) :   0.9038 B(  2-C , 10-H ) :   0.9251 B(  3-N ,  4-C ) :   1.0150
B(  3-N ,  5-C ) :   1.1457 B(  3-N ,  6-N ) :   0.1031 B(  4-C , 11-H ) :   0.9094
B(  4-C , 12-H ) :   0.9199 B(  5-C ,  6-N ) :   1.9642 B(  5-C , 13-H ) :   0.9408
B(  6-N , 14-H ) :   0.9451

FINAL SINGLE POINT ENERGY      -341.249108380805

DIPOLE MOMENT
-------------
                                X             Y             Z
Electronic contribution:     -0.23441      -0.20671       1.06938
Nuclear contribution   :     -1.01013       0.89867      -2.17098
                        -----------------------------------------
Total Dipole Moment    :     -1.24454       0.69196      -1.10160
                        -----------------------------------------
Magnitude (a.u.)       :      1.80033
Magnitude (Debye)      :      4.57608

                             ****ORCA TERMINATED NORMALLY****
TOTAL RUN TIME: 0 days 0 hours 0 minutes 6 seconds 674 msec
