                         Program Version 3.0.3 - RELEASE   -
|  1> ! RI PBE def2-SVP def2-SVP/J NBO PAL2
|  2> % maxcore 2000
|  3> % output
|  4>     # printlevel mini
|  5>     print[ P_Basis ] 0
|  6>     print[ P_SCFInfo ] 1
|  7>     print[ P_SCFIterInfo ] 1
|  8>     print[ P_OrbEn ] 0
|  9>     print[ P_Cartesian ] 0
| 10> end
| 11> *xyz 0 1
| 12>  O        0.9882910000     0.1724160000     0.0534340000
| 13>  C        2.3620440000     0.0375170000     0.0420980000
| 14>  C        3.2437780000     0.9822850000     0.9027160000
| 15>  N        4.1092440000    -0.1628740000     1.1957820000
| 16>  C        3.0387960000    -1.1019190000     0.8512200000
| 17>  C        2.8595680000     0.0236160000    -1.3822200000
| 18>  O        2.1664150000     0.1156380000    -2.3523950000
| 19>  H        0.6876730000     0.1793870000     0.9661040000
| 20>  H        2.6568850000     1.3499610000     1.7572120000
| 21>  H        3.7330920000     1.8298560000     0.4146790000
| 22>  H        4.4810050000    -0.2225970000     2.1337380000
| 23>  H        2.3874790000    -1.3897080000     1.6895030000
| 24>  H        3.3561200000    -2.0035080000     0.3197970000
| 25>  H        3.9632310000    -0.0832590000    -1.4516690000
| 26> *
| 27>
| 28>                          ****END OF INPUT****
 Total Charge           Charge          ....    0
 Multiplicity           Mult            ....    1
 Number of Electrons    NEL             ....   54
 Basis Dimension        Dim             ....  133

MULLIKEN ATOMIC CHARGES
-----------------------
   0 O :   -0.186408
   1 C :   -0.224394
   2 C :    0.180198
   3 N :   -0.263348
   4 C :    0.180942
   5 C :    0.158345
   6 O :   -0.128654
   7 H :    0.156190
   8 H :   -0.008160
   9 H :    0.026195
  10 H :    0.101262
  11 H :   -0.008394
  12 H :    0.025296
  13 H :   -0.009070
Sum of atomic charges:   -0.0000000

LOEWDIN ATOMIC CHARGES
----------------------
   0 O :   -0.063853
   1 C :   -0.037081
   2 C :    0.024683
   3 N :   -0.103146
   4 C :    0.024863
   5 C :    0.084530
   6 O :   -0.085785
   7 H :    0.068059
   8 H :    0.005788
   9 H :    0.015009
  10 H :    0.052490
  11 H :    0.005709
  12 H :    0.014666
  13 H :   -0.005933

  Mayer bond orders larger than 0.1
B(  0-O ,  1-C ) :   1.1814 B(  0-O ,  7-H ) :   0.9665 B(  1-C ,  2-C ) :   0.9649
B(  1-C ,  4-C ) :   0.9610 B(  1-C ,  5-C ) :   0.8586 B(  2-C ,  3-N ) :   1.0347
B(  2-C ,  8-H ) :   0.9073 B(  2-C ,  9-H ) :   0.9360 B(  3-N ,  4-C ) :   1.0348
B(  3-N , 10-H ) :   0.9371 B(  4-C , 11-H ) :   0.9079 B(  4-C , 12-H ) :   0.9364
B(  5-C ,  6-O ) :   2.2295 B(  5-C , 13-H ) :   0.9268

FINAL SINGLE POINT ENERGY      -361.082789432997

DIPOLE MOMENT
-------------
                                X             Y             Z
Electronic contribution:     -2.20879       0.32392      -4.30401
Nuclear contribution   :      2.54256      -0.39921       6.04138
                        -----------------------------------------
Total Dipole Moment    :      0.33377      -0.07529       1.73737
                        -----------------------------------------
Magnitude (a.u.)       :      1.77074
Magnitude (Debye)      :      4.50086

                             ****ORCA TERMINATED NORMALLY****
TOTAL RUN TIME: 0 days 0 hours 0 minutes 6 seconds 97 msec
