                         Program Version 3.0.3 - RELEASE   -
|  1> ! RI PBE def2-SVP def2-SVP/J NBO PAL2
|  2> % maxcore 2000
|  3> % output
|  4>     # printlevel mini
|  5>     print[ P_Basis ] 0
|  6>     print[ P_SCFInfo ] 1
|  7>     print[ P_SCFIterInfo ] 1
|  8>     print[ P_OrbEn ] 0
|  9>     print[ P_Cartesian ] 0
| 10> end
| 11> *xyz 0 1
| 12>  O        1.0480540000     0.0530080000     0.3592570000
| 13>  C        2.3918980000     0.0753500000    -0.0186850000
| 14>  C        3.2962900000     1.1536620000     0.6382660000
| 15>  N        4.1130730000     0.0671690000     1.1546090000
| 16>  C        3.2261340000    -0.9933590000     0.7083190000
| 17>  C        5.2328130000     0.0174640000     1.8900010000
| 18>  O        5.7493310000    -1.0029040000     2.2900310000
| 19>  H        0.5503970000     0.6532070000    -0.2013700000
| 20>  H        2.5064360000     0.0384340000    -1.1062560000
| 21>  H        2.7691470000     1.7191250000     1.4134810000
| 22>  H        3.8135550000     1.8384410000    -0.0391570000
| 23>  H        2.6758630000    -1.4725630000     1.5230140000
| 24>  H        3.7049010000    -1.7561880000     0.0916760000
| 25>  H        5.6498990000     1.0250640000     2.0874130000
| 26> *
| 27>
| 28>                          ****END OF INPUT****
 Total Charge           Charge          ....    0
 Multiplicity           Mult            ....    1
 Number of Electrons    NEL             ....   54
 Basis Dimension        Dim             ....  133

MULLIKEN ATOMIC CHARGES
-----------------------
   0 O :   -0.230116
   1 C :   -0.127830
   2 C :    0.257344
   3 N :   -0.306271
   4 C :    0.249815
   5 C :    0.147954
   6 O :   -0.239715
   7 H :    0.163514
   8 H :    0.018067
   9 H :    0.011160
  10 H :    0.024599
  11 H :    0.029598
  12 H :    0.035946
  13 H :   -0.034065
Sum of atomic charges:   -0.0000000

LOEWDIN ATOMIC CHARGES
----------------------
   0 O :   -0.096320
   1 C :    0.042152
   2 C :    0.029646
   3 N :   -0.040728
   4 C :    0.049301
   5 C :    0.039954
   6 O :   -0.189507
   7 H :    0.076521
   8 H :    0.012620
   9 H :    0.020813
  10 H :    0.018852
  11 H :    0.030283
  12 H :    0.026514
  13 H :   -0.020102

  Mayer bond orders larger than 0.1
B(  0-O ,  1-C ) :   1.1280 B(  0-O ,  7-H ) :   0.9771 B(  1-C ,  2-C ) :   1.0349
B(  1-C ,  4-C ) :   1.0528 B(  1-C ,  8-H ) :   0.9017 B(  2-C ,  3-N ) :   0.9907
B(  2-C ,  9-H ) :   0.9068 B(  2-C , 10-H ) :   0.9326 B(  3-N ,  4-C ) :   0.9772
B(  3-N ,  5-C ) :   1.1834 B(  4-C , 11-H ) :   0.9156 B(  4-C , 12-H ) :   0.9378
B(  5-C ,  6-O ) :   2.0325 B(  5-C , 13-H ) :   0.9226

FINAL SINGLE POINT ENERGY      -361.116064411430

DIPOLE MOMENT
-------------
                                X             Y             Z
Electronic contribution:      1.81341      -1.37647       1.80753
Nuclear contribution   :     -2.93269       2.50318      -3.01463
                        -----------------------------------------
Total Dipole Moment    :     -1.11928       1.12671      -1.20710
                        -----------------------------------------
Magnitude (a.u.)       :      1.99483
Magnitude (Debye)      :      5.07045

                             ****ORCA TERMINATED NORMALLY****
TOTAL RUN TIME: 0 days 0 hours 0 minutes 6 seconds 636 msec
