                         Program Version 3.0.3 - RELEASE   -
|  1> ! RI PBE def2-SVP def2-SVP/J NBO PAL2
|  2> % maxcore 2000
|  3> % output
|  4>     # printlevel mini
|  5>     print[ P_Basis ] 0
|  6>     print[ P_SCFInfo ] 1
|  7>     print[ P_SCFIterInfo ] 1
|  8>     print[ P_OrbEn ] 0
|  9>     print[ P_Cartesian ] 0
| 10> end
| 11> *xyz 0 1
| 12>  O        1.0802780000     0.0732000000     0.0323830000
| 13>  C        2.4739240000     0.1082460000     0.0760570000
| 14>  C        3.1757660000     1.0664630000     1.0586870000
| 15>  N        4.0700220000    -0.0393340000     1.4276320000
| 16>  C        3.1136300000    -1.0132730000     0.9167880000
| 17>  C        3.6407550000    -2.2199980000     0.2042960000
| 18>  O        4.7767930000    -2.6006020000     0.2325100000
| 19>  H        0.7702420000     0.6526660000    -0.6674860000
| 20>  H        2.9142720000     0.1586430000    -0.9257210000
| 21>  H        2.4691660000     1.3687270000     1.8424060000
| 22>  H        3.6782680000     1.9478010000     0.6518880000
| 23>  H        4.3272970000    -0.1213480000     2.4008420000
| 24>  H        2.3537710000    -1.3570290000     1.6404070000
| 25>  H        2.8632270000    -2.7672610000    -0.3770890000
| 26> *
| 27>
| 28>                          ****END OF INPUT****
 Total Charge           Charge          ....    0
 Multiplicity           Mult            ....    1
 Number of Electrons    NEL             ....   54
 Basis Dimension        Dim             ....  133

MULLIKEN ATOMIC CHARGES
-----------------------
   0 O :   -0.222943
   1 C :   -0.020254
   2 C :    0.188046
   3 N :   -0.247639
   4 C :    0.047328
   5 C :    0.112176
   6 O :   -0.146318
   7 H :    0.163526
   8 H :    0.009550
   9 H :   -0.003862
  10 H :    0.010745
  11 H :    0.105533
  12 H :    0.022917
  13 H :   -0.018806
Sum of atomic charges:   -0.0000000

LOEWDIN ATOMIC CHARGES
----------------------
   0 O :   -0.096610
   1 C :    0.052523
   2 C :    0.014496
   3 N :   -0.089627
   4 C :   -0.032096
   5 C :    0.074016
   6 O :   -0.098912
   7 H :    0.077740
   8 H :    0.012919
   9 H :    0.007676
  10 H :    0.010355
  11 H :    0.053951
  12 H :    0.027322
  13 H :   -0.013752

  Mayer bond orders larger than 0.1
B(  0-O ,  1-C ) :   1.1580 B(  0-O ,  7-H ) :   0.9750 B(  1-C ,  2-C ) :   1.0359
B(  1-C ,  4-C ) :   0.9904 B(  1-C ,  8-H ) :   0.9045 B(  2-C ,  3-N ) :   1.0469
B(  2-C ,  9-H ) :   0.9071 B(  2-C , 10-H ) :   0.9355 B(  3-N ,  4-C ) :   1.0382
B(  3-N , 11-H ) :   0.9386 B(  4-C ,  5-C ) :   0.9219 B(  4-C , 12-H ) :   0.8633
B(  5-C ,  6-O ) :   2.2217 B(  5-C , 13-H ) :   0.9169

FINAL SINGLE POINT ENERGY      -361.083607273472

DIPOLE MOMENT
-------------
                                X             Y             Z
Electronic contribution:      1.58747      -3.24082      -0.67680
Nuclear contribution   :     -2.55904       4.15076       0.64238
                        -----------------------------------------
Total Dipole Moment    :     -0.97157       0.90993      -0.03443
                        -----------------------------------------
Magnitude (a.u.)       :      1.33158
Magnitude (Debye)      :      3.38462

                             ****ORCA TERMINATED NORMALLY****
TOTAL RUN TIME: 0 days 0 hours 0 minutes 6 seconds 683 msec
