                         Program Version 3.0.3 - RELEASE   -
|  1> ! RI PBE def2-SVP def2-SVP/J NBO PAL2
|  2> % maxcore 2000
|  3> % output
|  4>     # printlevel mini
|  5>     print[ P_Basis ] 0
|  6>     print[ P_SCFInfo ] 1
|  7>     print[ P_SCFIterInfo ] 1
|  8>     print[ P_OrbEn ] 0
|  9>     print[ P_Cartesian ] 0
| 10> end
| 11> *xyz 0 1
| 12>  O        0.9839370000    -0.1664950000     0.6105990000
| 13>  C        2.2507330000     0.0244410000     0.0508150000
| 14>  C        3.0904480000     1.2250960000     0.5443180000
| 15>  N        4.1904510000     0.2915930000     0.7484630000
| 16>  C        3.3192230000    -0.8843830000     0.6658670000
| 17>  N        5.1158600000     0.5189940000     1.6831250000
| 18>  C        5.6758890000    -0.4710080000     2.2549770000
| 19>  H        0.3508260000     0.3881850000     0.1481360000
| 20>  H        2.2243740000    -0.0443090000    -1.0414000000
| 21>  H        2.6884860000     1.6229330000     1.4833980000
| 22>  H        3.2997620000     2.0393890000    -0.1534490000
| 23>  H        3.0073980000    -1.2455210000     1.6559330000
| 24>  H        3.6971290000    -1.7168650000     0.0685910000
| 25>  H        6.4527950000    -0.2573570000     2.9789470000
| 26>  H        5.4285980000    -1.5126850000     2.0406900000
| 27> *
| 28>
| 29>                          ****END OF INPUT****
 Total Charge           Charge          ....    0
 Multiplicity           Mult            ....    1
 Number of Electrons    NEL             ....   54
 Basis Dimension        Dim             ....  138

MULLIKEN ATOMIC CHARGES
-----------------------
   0 O :   -0.233791
   1 C :   -0.065725
   2 C :    0.237389
   3 N :   -0.286705
   4 C :    0.189981
   5 N :   -0.061716
   6 C :   -0.071765
   7 H :    0.161126
   8 H :    0.015018
   9 H :   -0.002934
  10 H :    0.022047
  11 H :    0.011828
  12 H :    0.030362
  13 H :    0.039652
  14 H :    0.015233
Sum of atomic charges:   -0.0000000

LOEWDIN ATOMIC CHARGES
----------------------
   0 O :   -0.101032
   1 C :    0.041665
   2 C :    0.021258
   3 N :   -0.031462
   4 C :    0.018782
   5 N :   -0.033411
   6 C :   -0.082730
   7 H :    0.075276
   8 H :    0.011946
   9 H :    0.014621
  10 H :    0.015578
  11 H :    0.020333
  12 H :    0.018340
  13 H :    0.017509
  14 H :   -0.006673

  Mayer bond orders larger than 0.1
B(  0-O ,  1-C ) :   1.1466 B(  0-O ,  7-H ) :   0.9785 B(  1-C ,  2-C ) :   1.0362
B(  1-C ,  4-C ) :   1.0530 B(  1-C ,  8-H ) :   0.9076 B(  2-C ,  3-N ) :   0.9905
B(  2-C ,  9-H ) :   0.9044 B(  2-C , 10-H ) :   0.9361 B(  3-N ,  4-C ) :   0.9629
B(  3-N ,  5-N ) :   1.0995 B(  3-N ,  6-C ) :   0.1333 B(  4-C , 11-H ) :   0.8970
B(  4-C , 12-H ) :   0.9354 B(  5-N ,  6-C ) :   1.8716 B(  6-C , 13-H ) :   0.9564
B(  6-C , 14-H ) :   0.9243

FINAL SINGLE POINT ENERGY      -341.216236347248

DIPOLE MOMENT
-------------
                                X             Y             Z
Electronic contribution:     -0.24897       1.10923      -0.34348
Nuclear contribution   :     -0.46388      -1.18231      -0.25858
                        -----------------------------------------
Total Dipole Moment    :     -0.71285      -0.07308      -0.60206
                        -----------------------------------------
Magnitude (a.u.)       :      0.93594
Magnitude (Debye)      :      2.37896

                             ****ORCA TERMINATED NORMALLY****
TOTAL RUN TIME: 0 days 0 hours 0 minutes 6 seconds 904 msec
