                         Program Version 3.0.3 - RELEASE   -
|  1> ! RI PBE def2-SVP def2-SVP/J NBO PAL2
|  2> % maxcore 2000
|  3> % output
|  4>     # printlevel mini
|  5>     print[ P_Basis ] 0
|  6>     print[ P_SCFInfo ] 1
|  7>     print[ P_SCFIterInfo ] 1
|  8>     print[ P_OrbEn ] 0
|  9>     print[ P_Cartesian ] 0
| 10> end
| 11> *xyz 0 1
| 12>  O        1.0229070000     0.2756600000     0.0542830000
| 13>  C        2.4096480000     0.0127920000    -0.1007740000
| 14>  C        2.7093880000    -1.4601240000    -0.4136950000
| 15>  N        2.6893100000    -1.6045690000    -1.8672650000
| 16>  C        3.0936630000    -0.3279240000    -2.4079250000
| 17>  C        2.0504200000     0.7337710000    -2.5468990000
| 18>  C        2.9356840000     0.7183490000    -1.3364530000
| 19>  H        0.7216470000    -0.1751050000     0.8470640000
| 20>  H        2.9532730000     0.3517750000     0.7905400000
| 21>  H        2.0056950000    -2.1491510000     0.0625200000
| 22>  H        3.7125850000    -1.7034760000    -0.0434160000
| 23>  H        1.7595640000    -1.8451560000    -2.1841040000
| 24>  H        3.9539130000    -0.3227520000    -3.0688100000
| 25>  H        1.0135180000     0.4527710000    -2.4102330000
| 26>  H        2.2214870000     1.5232660000    -3.2694600000
| 27>  H        3.6605680000     1.5122830000    -1.2132630000
| 28> *
| 29>
| 30>                          ****END OF INPUT****
 Total Charge           Charge          ....    0
 Multiplicity           Mult            ....    1
 Number of Electrons    NEL             ....   54
 Basis Dimension        Dim             ....  143

MULLIKEN ATOMIC CHARGES
-----------------------
   0 O :   -0.254412
   1 C :    0.071010
   2 C :    0.178406
   3 N :   -0.183216
   4 C :   -0.065041
   5 C :    0.040811
   6 C :   -0.102844
   7 H :    0.151799
   8 H :   -0.015610
   9 H :   -0.015804
  10 H :    0.000755
  11 H :    0.099085
  12 H :    0.015121
  13 H :    0.035501
  14 H :    0.024065
  15 H :    0.020375
Sum of atomic charges:   -0.0000000

LOEWDIN ATOMIC CHARGES
----------------------
   0 O :   -0.116058
   1 C :    0.038659
   2 C :    0.005724
   3 N :   -0.087273
   4 C :   -0.000843
   5 C :   -0.038917
   6 C :   -0.051554
   7 H :    0.066264
   8 H :    0.006134
   9 H :    0.013577
  10 H :    0.016257
  11 H :    0.053382
  12 H :    0.014927
  13 H :    0.025689
  14 H :    0.029236
  15 H :    0.024795

  Mayer bond orders larger than 0.1
B(  0-O ,  1-C ) :   1.0711 B(  0-O ,  7-H ) :   0.9804 B(  1-C ,  2-C ) :   1.0197
B(  1-C ,  6-C ) :   1.0671 B(  1-C ,  8-H ) :   0.9177 B(  2-C ,  3-N ) :   1.0753
B(  2-C ,  9-H ) :   0.9246 B(  2-C , 10-H ) :   0.9219 B(  3-N ,  4-C ) :   1.1144
B(  3-N , 11-H ) :   0.9460 B(  4-C ,  5-C ) :   1.0029 B(  4-C ,  6-C ) :   0.9200
B(  4-C , 12-H ) :   0.9454 B(  5-C ,  6-C ) :   0.9764 B(  5-C , 13-H ) :   0.9248
B(  5-C , 14-H ) :   0.9295 B(  6-C , 15-H ) :   0.9540

FINAL SINGLE POINT ENERGY      -325.226218852504

DIPOLE MOMENT
-------------
                                X             Y             Z
Electronic contribution:     -0.74750       0.09597       0.29830
Nuclear contribution   :      0.62973      -0.13821       0.19069
                        -----------------------------------------
Total Dipole Moment    :     -0.11777      -0.04224       0.48899
                        -----------------------------------------
Magnitude (a.u.)       :      0.50474
Magnitude (Debye)      :      1.28295

                             ****ORCA TERMINATED NORMALLY****
TOTAL RUN TIME: 0 days 0 hours 0 minutes 7 seconds 176 msec
