                         Program Version 3.0.3 - RELEASE   -
|  1> ! RI PBE def2-SVP def2-SVP/J NBO PAL2
|  2> % maxcore 2000
|  3> % output
|  4>     # printlevel mini
|  5>     print[ P_Basis ] 0
|  6>     print[ P_SCFInfo ] 1
|  7>     print[ P_SCFIterInfo ] 1
|  8>     print[ P_OrbEn ] 0
|  9>     print[ P_Cartesian ] 0
| 10> end
| 11> *xyz 0 1
| 12>  O        1.6522960000     0.2789190000     1.0705430000
| 13>  C        2.5803150000     0.0762270000     0.3349610000
| 14>  C        2.9424670000    -1.2700370000    -0.2799450000
| 15>  N        4.3378680000    -1.1503830000    -0.6746130000
| 16>  C        4.6810560000     0.2481570000    -0.7697750000
| 17>  C        3.8261500000     1.1428610000    -1.5969020000
| 18>  C        3.6111650000     1.0523970000    -0.0949060000
| 19>  H        2.2471890000    -1.4620810000    -1.1100060000
| 20>  H        2.7889710000    -2.0592600000     0.4599750000
| 21>  H        4.5406260000    -1.6431090000    -1.5337400000
| 22>  H        5.7276530000     0.4892230000    -0.6251890000
| 23>  H        3.0814300000     0.7025370000    -2.2502580000
| 24>  H        4.2437450000     2.0783220000    -1.9480650000
| 25>  H        3.7983800000     1.9193160000     0.5229310000
| 26> *
| 27>
| 28>                          ****END OF INPUT****
 Total Charge           Charge          ....    0
 Multiplicity           Mult            ....    1
 Number of Electrons    NEL             ....   52
 Basis Dimension        Dim             ....  133

MULLIKEN ATOMIC CHARGES
-----------------------
   0 O :   -0.142334
   1 C :    0.039537
   2 C :    0.095594
   3 N :   -0.192284
   4 C :    0.003660
   5 C :    0.029977
   6 C :   -0.154463
   7 H :    0.037789
   8 H :    0.040182
   9 H :    0.107233
  10 H :    0.028167
  11 H :    0.037658
  12 H :    0.038465
  13 H :    0.030819
Sum of atomic charges:   -0.0000000

LOEWDIN ATOMIC CHARGES
----------------------
   0 O :   -0.116808
   1 C :    0.053619
   2 C :   -0.012469
   3 N :   -0.086555
   4 C :    0.012862
   5 C :   -0.037872
   6 C :   -0.063101
   7 H :    0.029444
   8 H :    0.037432
   9 H :    0.059180
  10 H :    0.023801
  11 H :    0.027702
  12 H :    0.035561
  13 H :    0.037203

  Mayer bond orders larger than 0.1
B(  0-O ,  1-C ) :   2.2151 B(  1-C ,  2-C ) :   0.9462 B(  1-C ,  6-C ) :   1.0144
B(  2-C ,  3-N ) :   1.0429 B(  2-C ,  7-H ) :   0.9061 B(  2-C ,  8-H ) :   0.9151
B(  3-N ,  4-C ) :   1.1032 B(  3-N ,  9-H ) :   0.9403 B(  4-C ,  5-C ) :   0.9794
B(  4-C ,  6-C ) :   0.8743 B(  4-C , 10-H ) :   0.9434 B(  5-C ,  6-C ) :   0.9312
B(  5-C , 11-H ) :   0.9325 B(  5-C , 12-H ) :   0.9343 B(  6-C , 13-H ) :   0.9583

FINAL SINGLE POINT ENERGY      -324.043090267966

DIPOLE MOMENT
-------------
                                X             Y             Z
Electronic contribution:     -2.05222       0.17160       3.16473
Nuclear contribution   :      2.74838      -0.20829      -4.18815
                        -----------------------------------------
Total Dipole Moment    :      0.69616      -0.03669      -1.02341
                        -----------------------------------------
Magnitude (a.u.)       :      1.23829
Magnitude (Debye)      :      3.14748

                             ****ORCA TERMINATED NORMALLY****
TOTAL RUN TIME: 0 days 0 hours 0 minutes 6 seconds 618 msec
