                         Program Version 3.0.3 - RELEASE   -
|  1> ! RI PBE def2-SVP def2-SVP/J NBO PAL2
|  2> % maxcore 2000
|  3> % output
|  4>     # printlevel mini
|  5>     print[ P_Basis ] 0
|  6>     print[ P_SCFInfo ] 1
|  7>     print[ P_SCFIterInfo ] 1
|  8>     print[ P_OrbEn ] 0
|  9>     print[ P_Cartesian ] 0
| 10> end
| 11> *xyz 0 1
| 12>  O        0.9744870000    -0.1219210000    -0.0306130000
| 13>  C        2.3778370000    -0.0636580000     0.0214090000
| 14>  C        2.9637790000     1.0242620000     0.9207760000
| 15>  N        4.3084690000     0.5224360000     1.1330510000
| 16>  C        4.1815650000    -0.9062770000     1.4127360000
| 17>  C        2.9618620000    -1.3139580000     0.6272560000
| 18>  C        2.4321760000    -2.5223940000     0.5341860000
| 19>  H        0.6653030000     0.5484780000    -0.6439060000
| 20>  H        2.7980360000     0.0621140000    -0.9874640000
| 21>  H        2.3459260000     1.0818820000     1.8325860000
| 22>  H        2.9823780000     2.0099260000     0.4482190000
| 23>  H        4.8068300000     1.0193490000     1.8571030000
| 24>  H        4.0142450000    -1.1255550000     2.4793110000
| 25>  H        5.0813480000    -1.4452780000     1.1024300000
| 26>  H        2.8825610000    -3.3812130000     1.0200430000
| 27>  H        1.5149090000    -2.6804920000    -0.0202340000
| 28> *
| 29>
| 30>                          ****END OF INPUT****
 Total Charge           Charge          ....    0
 Multiplicity           Mult            ....    1
 Number of Electrons    NEL             ....   54
 Basis Dimension        Dim             ....  143

MULLIKEN ATOMIC CHARGES
-----------------------
   0 O :   -0.239085
   1 C :    0.145411
   2 C :    0.122958
   3 N :   -0.288655
   4 C :    0.247451
   5 C :   -0.266618
   6 C :   -0.021821
   7 H :    0.156603
   8 H :    0.016153
   9 H :   -0.004711
  10 H :   -0.005786
  11 H :    0.098529
  12 H :    0.006336
  13 H :    0.014170
  14 H :    0.002793
  15 H :    0.016272
Sum of atomic charges:    0.0000000

LOEWDIN ATOMIC CHARGES
----------------------
   0 O :   -0.098693
   1 C :    0.042932
   2 C :   -0.000626
   3 N :   -0.107588
   4 C :    0.023032
   5 C :   -0.047386
   6 C :   -0.062184
   7 H :    0.072600
   8 H :    0.021404
   9 H :   -0.000110
  10 H :    0.013184
  11 H :    0.054898
  12 H :    0.015382
  13 H :    0.025621
  14 H :    0.021886
  15 H :    0.025648

  Mayer bond orders larger than 0.1
B(  0-O ,  1-C ) :   1.1392 B(  0-O ,  7-H ) :   0.9783 B(  1-C ,  2-C ) :   1.0334
B(  1-C ,  5-C ) :   1.0083 B(  1-C ,  8-H ) :   0.8923 B(  2-C ,  3-N ) :   1.0371
B(  2-C ,  9-H ) :   0.9096 B(  2-C , 10-H ) :   0.9249 B(  3-N ,  4-C ) :   1.0442
B(  3-N , 11-H ) :   0.9387 B(  4-C ,  5-C ) :   1.0220 B(  4-C , 12-H ) :   0.9080
B(  4-C , 13-H ) :   0.9168 B(  5-C ,  6-C ) :   2.0403 B(  6-C , 14-H ) :   0.9328
B(  6-C , 15-H ) :   0.9244

FINAL SINGLE POINT ENERGY      -325.231164166044

DIPOLE MOMENT
-------------
                                X             Y             Z
Electronic contribution:     -1.19967       0.42986      -1.10496
Nuclear contribution   :      1.34215       0.08881       1.12646
                        -----------------------------------------
Total Dipole Moment    :      0.14248       0.51868       0.02150
                        -----------------------------------------
Magnitude (a.u.)       :      0.53832
Magnitude (Debye)      :      1.36830

                             ****ORCA TERMINATED NORMALLY****
TOTAL RUN TIME: 0 days 0 hours 0 minutes 7 seconds 289 msec
