                         Program Version 3.0.3 - RELEASE   -
|  1> ! RI PBE def2-SVP def2-SVP/J NBO PAL2
|  2> % maxcore 2000
|  3> % output
|  4>     # printlevel mini
|  5>     print[ P_Basis ] 0
|  6>     print[ P_SCFInfo ] 1
|  7>     print[ P_SCFIterInfo ] 1
|  8>     print[ P_OrbEn ] 0
|  9>     print[ P_Cartesian ] 0
| 10> end
| 11> *xyz 0 1
| 12>  O        0.9994320000    -0.0359060000     0.8585540000
| 13>  C        2.1961230000     0.0193910000     0.1056130000
| 14>  C        3.1404140000     1.1469030000     0.5758190000
| 15>  N        4.2799830000     0.4492060000     1.1733560000
| 16>  C        3.7758770000    -0.8374870000     1.6394400000
| 17>  C        2.9868800000    -1.2582010000     0.4120800000
| 18>  O        3.8501620000    -1.5883100000    -0.6505090000
| 19>  H        0.5061130000     0.7748130000     0.7129250000
| 20>  H        1.9823770000     0.0741350000    -0.9666820000
| 21>  H        2.5931790000     1.7721460000     1.2954690000
| 22>  H        3.4734340000     1.7881250000    -0.2449980000
| 23>  H        4.7479530000     0.9883690000     1.8873150000
| 24>  H        3.1065310000    -0.7684350000     2.5095450000
| 25>  H        4.5928380000    -1.5258590000     1.8651390000
| 26>  H        2.3153760000    -2.1005010000     0.5777340000
| 27>  H        4.5816380000    -0.9596780000    -0.5969000000
| 28> *
| 29>
| 30>                          ****END OF INPUT****
 Total Charge           Charge          ....    0
 Multiplicity           Mult            ....    1
 Number of Electrons    NEL             ....   56
 Basis Dimension        Dim             ....  143

MULLIKEN ATOMIC CHARGES
-----------------------
   0 O :   -0.253872
   1 C :    0.001142
   2 C :    0.185733
   3 N :   -0.293570
   4 C :    0.113952
   5 C :    0.077643
   6 O :   -0.255026
   7 H :    0.155153
   8 H :    0.000528
   9 H :   -0.020917
  10 H :    0.010541
  11 H :    0.099624
  12 H :    0.006046
  13 H :    0.015239
  14 H :    0.010754
  15 H :    0.147030
Sum of atomic charges:   -0.0000000

LOEWDIN ATOMIC CHARGES
----------------------
   0 O :   -0.111038
   1 C :    0.028437
   2 C :   -0.001579
   3 N :   -0.106792
   4 C :   -0.000559
   5 C :    0.039789
   6 O :   -0.107511
   7 H :    0.066482
   8 H :    0.007872
   9 H :    0.006623
  10 H :    0.017086
  11 H :    0.056501
  12 H :    0.006994
  13 H :    0.019376
  14 H :    0.022143
  15 H :    0.056175

  Mayer bond orders larger than 0.1
B(  0-O ,  1-C ) :   1.0787 B(  0-O ,  7-H ) :   0.9766 B(  1-C ,  2-C ) :   1.0196
B(  1-C ,  5-C ) :   1.0072 B(  1-C ,  8-H ) :   0.9109 B(  2-C ,  3-N ) :   1.0675
B(  2-C ,  9-H ) :   0.9046 B(  2-C , 10-H ) :   0.9245 B(  3-N ,  4-C ) :   1.0077
B(  3-N , 11-H ) :   0.9402 B(  4-C ,  5-C ) :   1.0352 B(  4-C , 12-H ) :   0.9198
B(  4-C , 13-H ) :   0.9327 B(  5-C ,  6-O ) :   1.0893 B(  5-C , 14-H ) :   0.9223
B(  6-O , 15-H ) :   0.9636

FINAL SINGLE POINT ENERGY      -362.312822783696

DIPOLE MOMENT
-------------
                                X             Y             Z
Electronic contribution:     -0.68561      -1.48988      -1.26572
Nuclear contribution   :      0.70045       2.55239       1.70653
                        -----------------------------------------
Total Dipole Moment    :      0.01484       1.06251       0.44081
                        -----------------------------------------
Magnitude (a.u.)       :      1.15042
Magnitude (Debye)      :      2.92412

                             ****ORCA TERMINATED NORMALLY****
TOTAL RUN TIME: 0 days 0 hours 0 minutes 7 seconds 370 msec
