                         Program Version 3.0.3 - RELEASE   -
|  1> ! RI PBE def2-SVP def2-SVP/J NBO PAL2
|  2> % maxcore 2000
|  3> % output
|  4>     # printlevel mini
|  5>     print[ P_Basis ] 0
|  6>     print[ P_SCFInfo ] 1
|  7>     print[ P_SCFIterInfo ] 1
|  8>     print[ P_OrbEn ] 0
|  9>     print[ P_Cartesian ] 0
| 10> end
| 11> *xyz 0 1
| 12>  O        1.0234690000    -0.0683490000     0.0770790000
| 13>  C        2.4178890000    -0.0158020000     0.0834500000
| 14>  C        3.0480990000     1.0482160000     0.9769310000
| 15>  N        4.3875400000     0.5137020000     1.1754410000
| 16>  C        4.2358160000    -0.9012700000     1.4661430000
| 17>  C        3.0195720000    -1.3014880000     0.6549580000
| 18>  O        2.5847990000    -2.4070180000     0.5166170000
| 19>  H        0.6902740000     0.4658330000    -0.6458170000
| 20>  H        2.8364690000     0.0809690000    -0.9294120000
| 21>  H        2.4462190000     1.1204220000     1.8979580000
| 22>  H        3.0883770000     2.0346980000     0.5106680000
| 23>  H        4.9086970000     1.0112490000     1.8822380000
| 24>  H        4.0031260000    -1.1320160000     2.5195550000
| 25>  H        5.1116510000    -1.4887440000     1.1815120000
| 26> *
| 27>
| 28>                          ****END OF INPUT****
 Total Charge           Charge          ....    0
 Multiplicity           Mult            ....    1
 Number of Electrons    NEL             ....   54
 Basis Dimension        Dim             ....  133

MULLIKEN ATOMIC CHARGES
-----------------------
   0 O :   -0.225569
   1 C :    0.083190
   2 C :    0.124556
   3 N :   -0.288803
   4 C :    0.186400
   5 C :   -0.116537
   6 O :   -0.128517
   7 H :    0.163366
   8 H :    0.031978
   9 H :    0.002181
  10 H :    0.004568
  11 H :    0.106097
  12 H :    0.022802
  13 H :    0.034289
Sum of atomic charges:   -0.0000000

LOEWDIN ATOMIC CHARGES
----------------------
   0 O :   -0.088150
   1 C :    0.003412
   2 C :    0.001531
   3 N :   -0.105076
   4 C :   -0.014530
   5 C :    0.043874
   6 O :   -0.091880
   7 H :    0.077986
   8 H :    0.031567
   9 H :    0.003143
  10 H :    0.017794
  11 H :    0.058250
  12 H :    0.026574
  13 H :    0.035504

  Mayer bond orders larger than 0.1
B(  0-O ,  1-C ) :   1.1566 B(  0-O ,  7-H ) :   0.9767 B(  1-C ,  2-C ) :   1.0353
B(  1-C ,  5-C ) :   0.9091 B(  1-C ,  8-H ) :   0.8893 B(  2-C ,  3-N ) :   1.0255
B(  2-C ,  9-H ) :   0.9104 B(  2-C , 10-H ) :   0.9254 B(  3-N ,  4-C ) :   1.0487
B(  3-N , 11-H ) :   0.9371 B(  4-C ,  5-C ) :   0.9540 B(  4-C , 12-H ) :   0.8904
B(  4-C , 13-H ) :   0.9148 B(  5-C ,  6-O ) :   2.2508

FINAL SINGLE POINT ENERGY      -361.116163980952

DIPOLE MOMENT
-------------
                                X             Y             Z
Electronic contribution:     -2.03554      -3.58438      -1.39716
Nuclear contribution   :      2.45479       4.82578       1.42210
                        -----------------------------------------
Total Dipole Moment    :      0.41926       1.24140       0.02494
                        -----------------------------------------
Magnitude (a.u.)       :      1.31052
Magnitude (Debye)      :      3.33108

                             ****ORCA TERMINATED NORMALLY****
TOTAL RUN TIME: 0 days 0 hours 0 minutes 6 seconds 67 msec
