                         Program Version 3.0.3 - RELEASE   -
|  1> ! RI PBE def2-SVP def2-SVP/J NBO PAL2
|  2> % maxcore 2000
|  3> % output
|  4>     # printlevel mini
|  5>     print[ P_Basis ] 0
|  6>     print[ P_SCFInfo ] 1
|  7>     print[ P_SCFIterInfo ] 1
|  8>     print[ P_OrbEn ] 0
|  9>     print[ P_Cartesian ] 0
| 10> end
| 11> *xyz 0 1
| 12>  O        1.0007970000    -0.0732620000     0.1909170000
| 13>  C        2.2088050000    -0.0493730000     0.1072020000
| 14>  C        2.9801650000     1.2425810000    -0.0913870000
| 15>  N        4.3313590000     1.2237060000     0.4361620000
| 16>  C        5.0922810000     0.0859710000    -0.0353130000
| 17>  C        4.3529510000    -1.2141200000     0.0021320000
| 18>  C        3.0245070000    -1.2742230000     0.1234170000
| 19>  H        2.4110840000     2.0619680000     0.3505930000
| 20>  H        3.0214500000     1.4334110000    -1.1727760000
| 21>  H        4.2923830000     1.1989500000     1.4481360000
| 22>  H        6.0126240000     0.0075710000     0.5507930000
| 23>  H        5.4205520000     0.2736870000    -1.0694800000
| 24>  H        4.9370150000    -2.1279550000    -0.0843240000
| 25>  H        2.4878470000    -2.2154210000     0.1768300000
| 26> *
| 27>
| 28>                          ****END OF INPUT****
 Total Charge           Charge          ....    0
 Multiplicity           Mult            ....    1
 Number of Electrons    NEL             ....   52
 Basis Dimension        Dim             ....  133

MULLIKEN ATOMIC CHARGES
-----------------------
   0 O :   -0.164001
   1 C :   -0.056184
   2 C :    0.133906
   3 N :   -0.238833
   4 C :    0.150958
   5 C :   -0.089574
   6 C :    0.030239
   7 H :    0.024724
   8 H :    0.033400
   9 H :    0.105705
  10 H :    0.030222
  11 H :    0.032273
  12 H :    0.010311
  13 H :   -0.003147
Sum of atomic charges:   -0.0000000

LOEWDIN ATOMIC CHARGES
----------------------
   0 O :   -0.125619
   1 C :    0.021578
   2 C :   -0.016589
   3 N :   -0.087489
   4 C :    0.003821
   5 C :   -0.003514
   6 C :   -0.069051
   7 H :    0.036107
   8 H :    0.040012
   9 H :    0.059318
  10 H :    0.036988
  11 H :    0.040186
  12 H :    0.029882
  13 H :    0.034370

  Mayer bond orders larger than 0.1
B(  0-O ,  1-C ) :   2.1165 B(  1-C ,  2-C ) :   0.9734 B(  1-C ,  6-C ) :   1.0286
B(  2-C ,  3-N ) :   1.0675 B(  2-C ,  7-H ) :   0.9199 B(  2-C ,  8-H ) :   0.9010
B(  3-N ,  4-C ) :   1.1037 B(  3-N ,  9-H ) :   0.9520 B(  4-C ,  5-C ) :   1.0205
B(  4-C , 10-H ) :   0.9299 B(  4-C , 11-H ) :   0.8995 B(  5-C ,  6-C ) :   1.7657
B(  5-C , 12-H ) :   0.9455 B(  6-C , 13-H ) :   0.9719

FINAL SINGLE POINT ENERGY      -324.055100766913

DIPOLE MOMENT
-------------
                                X             Y             Z
Electronic contribution:     -4.11509      -0.72538       0.60484
Nuclear contribution   :      5.31200       0.45753      -0.52900
                        -----------------------------------------
Total Dipole Moment    :      1.19691      -0.26784       0.07584
                        -----------------------------------------
Magnitude (a.u.)       :      1.22886
Magnitude (Debye)      :      3.12351

                             ****ORCA TERMINATED NORMALLY****
TOTAL RUN TIME: 0 days 0 hours 0 minutes 6 seconds 592 msec
