                         Program Version 3.0.3 - RELEASE   -
|  1> ! RI PBE def2-SVP def2-SVP/J NBO PAL2
|  2> % maxcore 2000
|  3> % output
|  4>     # printlevel mini
|  5>     print[ P_Basis ] 0
|  6>     print[ P_SCFInfo ] 1
|  7>     print[ P_SCFIterInfo ] 1
|  8>     print[ P_OrbEn ] 0
|  9>     print[ P_Cartesian ] 0
| 10> end
| 11> *xyz 0 1
| 12>  O        1.0570790000    -0.0229650000     0.5969260000
| 13>  C        2.4065850000     0.1098540000     0.1822700000
| 14>  C        2.6254670000     1.3393730000    -0.6958690000
| 15>  N        3.9164810000     1.3425670000    -1.3539920000
| 16>  C        4.1043800000     0.1820870000    -2.2083270000
| 17>  C        3.5250810000    -1.0907460000    -1.6698960000
| 18>  C        2.7634090000    -1.1243720000    -0.5834150000
| 19>  H        0.8353910000     0.7314250000     1.1490890000
| 20>  H        3.0562520000     0.1827210000     1.0716560000
| 21>  H        2.5200840000     2.2582030000    -0.1092680000
| 22>  H        1.8394070000     1.3486150000    -1.4588400000
| 23>  H        4.6525040000     1.3734920000    -0.6593110000
| 24>  H        5.1756860000     0.0595350000    -2.3967410000
| 25>  H        3.6561550000     0.3852420000    -3.1919620000
| 26>  H        3.7294890000    -2.0043740000    -2.2220570000
| 27>  H        2.3459310000    -2.0561670000    -0.2146510000
| 28> *
| 29>
| 30>                          ****END OF INPUT****
 Total Charge           Charge          ....    0
 Multiplicity           Mult            ....    1
 Number of Electrons    NEL             ....   54
 Basis Dimension        Dim             ....  143

MULLIKEN ATOMIC CHARGES
-----------------------
   0 O :   -0.261378
   1 C :    0.106346
   2 C :    0.087671
   3 N :   -0.237174
   4 C :    0.151582
   5 C :   -0.109587
   6 C :   -0.025582
   7 H :    0.150654
   8 H :   -0.004226
   9 H :   -0.004255
  10 H :    0.012176
  11 H :    0.099342
  12 H :    0.017731
  13 H :    0.024567
  14 H :   -0.004512
  15 H :   -0.003356
Sum of atomic charges:   -0.0000000

LOEWDIN ATOMIC CHARGES
----------------------
   0 O :   -0.113886
   1 C :    0.021987
   2 C :   -0.008096
   3 N :   -0.089569
   4 C :    0.005339
   5 C :   -0.054688
   6 C :   -0.046284
   7 H :    0.067851
   8 H :    0.007326
   9 H :    0.015548
  10 H :    0.023855
  11 H :    0.054247
  12 H :    0.031033
  13 H :    0.031657
  14 H :    0.025410
  15 H :    0.028268

  Mayer bond orders larger than 0.1
B(  0-O ,  1-C ) :   1.0746 B(  0-O ,  7-H ) :   0.9799 B(  1-C ,  2-C ) :   1.0464
B(  1-C ,  6-C ) :   0.9948 B(  1-C ,  8-H ) :   0.8871 B(  2-C ,  3-N ) :   1.0819
B(  2-C ,  9-H ) :   0.9322 B(  2-C , 10-H ) :   0.9188 B(  3-N ,  4-C ) :   1.0916
B(  3-N , 11-H ) :   0.9509 B(  4-C ,  5-C ) :   1.0050 B(  4-C , 12-H ) :   0.9299
B(  4-C , 13-H ) :   0.9134 B(  5-C ,  6-C ) :   1.9121 B(  5-C , 14-H ) :   0.9544
B(  6-C , 15-H ) :   0.9650

FINAL SINGLE POINT ENERGY      -325.238475746179

DIPOLE MOMENT
-------------
                                X             Y             Z
Electronic contribution:     -1.39035      -0.74831       1.29098
Nuclear contribution   :      1.78951       0.97323      -0.93698
                        -----------------------------------------
Total Dipole Moment    :      0.39915       0.22492       0.35400
                        -----------------------------------------
Magnitude (a.u.)       :      0.57899
Magnitude (Debye)      :      1.47168

                             ****ORCA TERMINATED NORMALLY****
TOTAL RUN TIME: 0 days 0 hours 0 minutes 6 seconds 907 msec
