                         Program Version 3.0.3 - RELEASE   -
|  1> ! RI PBE def2-SVP def2-SVP/J NBO PAL2
|  2> % maxcore 2000
|  3> % output
|  4>     # printlevel mini
|  5>     print[ P_Basis ] 0
|  6>     print[ P_SCFInfo ] 1
|  7>     print[ P_SCFIterInfo ] 1
|  8>     print[ P_OrbEn ] 0
|  9>     print[ P_Cartesian ] 0
| 10> end
| 11> *xyz 0 1
| 12>  O        1.1414920000    -0.0254400000     0.1046220000
| 13>  C        2.4783320000     0.0528450000    -0.0067190000
| 14>  C        3.1574330000     1.2767460000    -0.0629430000
| 15>  N        4.4696770000     1.3309890000    -0.1721810000
| 16>  C        5.1194060000     0.1712140000    -0.2265490000
| 17>  C        4.4383160000    -1.0326810000    -0.1701320000
| 18>  N        3.1163430000    -1.0965950000    -0.0601020000
| 19>  H        0.7690820000     0.8612690000     0.1357870000
| 20>  H        2.6173590000     2.2212930000    -0.0177100000
| 21>  H        6.1997230000     0.2059640000    -0.3164820000
| 22>  H        4.9707360000    -1.9784140000    -0.2146800000
| 23> *
| 24>
| 25>                          ****END OF INPUT****
 Total Charge           Charge          ....    0
 Multiplicity           Mult            ....    1
 Number of Electrons    NEL             ....   50
 Basis Dimension        Dim             ....  118

MULLIKEN ATOMIC CHARGES
-----------------------
   0 O :   -0.106979
   1 C :    0.027228
   2 C :   -0.029954
   3 N :   -0.047441
   4 C :   -0.002118
   5 C :    0.030265
   6 N :   -0.054416
   7 H :    0.171871
   8 H :   -0.010792
   9 H :    0.011602
  10 H :    0.010734
Sum of atomic charges:   -0.0000000

LOEWDIN ATOMIC CHARGES
----------------------
   0 O :    0.000754
   1 C :    0.014475
   2 C :   -0.055270
   3 N :   -0.032509
   4 C :   -0.034746
   5 C :    0.006195
   6 N :   -0.058473
   7 H :    0.091647
   8 H :    0.017991
   9 H :    0.024325
  10 H :    0.025611

  Mayer bond orders larger than 0.1
B(  0-O ,  1-C ) :   1.2551 B(  0-O ,  7-H ) :   0.9605 B(  1-C ,  2-C ) :   1.2531
B(  1-C ,  6-N ) :   1.5241 B(  2-C ,  3-N ) :   1.6074 B(  2-C ,  8-H ) :   0.9556
B(  3-N ,  4-C ) :   1.5119 B(  4-C ,  5-C ) :   1.3826 B(  4-C ,  9-H ) :   0.9664
B(  5-C ,  6-N ) :   1.5198 B(  5-C , 10-H ) :   0.9638

FINAL SINGLE POINT ENERGY      -338.907054976014

DIPOLE MOMENT
-------------
                                X             Y             Z
Electronic contribution:     -1.29498      -0.34276       0.10519
Nuclear contribution   :      1.06608       0.84390      -0.08853
                        -----------------------------------------
Total Dipole Moment    :     -0.22891       0.50114       0.01667
                        -----------------------------------------
Magnitude (a.u.)       :      0.55120
Magnitude (Debye)      :      1.40103

                             ****ORCA TERMINATED NORMALLY****
TOTAL RUN TIME: 0 days 0 hours 0 minutes 5 seconds 188 msec
