                         Program Version 3.0.3 - RELEASE   -
|  1> ! RI PBE def2-SVP def2-SVP/J NBO PAL2
|  2> % maxcore 2000
|  3> % output
|  4>     # printlevel mini
|  5>     print[ P_Basis ] 0
|  6>     print[ P_SCFInfo ] 1
|  7>     print[ P_SCFIterInfo ] 1
|  8>     print[ P_OrbEn ] 0
|  9>     print[ P_Cartesian ] 0
| 10> end
| 11> *xyz 0 1
| 12>  O        1.3809080000     0.0319540000     0.9981610000
| 13>  C        2.3483170000    -0.0218060000     0.2643000000
| 14>  C        3.0127680000    -1.3443060000    -0.0790880000
| 15>  N        3.9452460000    -1.3398660000    -1.1894500000
| 16>  C        4.8005120000    -0.1731230000    -1.1423360000
| 17>  C        4.0176860000     1.1263870000    -1.2040000000
| 18>  N        2.9216920000     1.0909140000    -0.2587610000
| 19>  H        2.2163440000    -2.0685440000    -0.2547570000
| 20>  H        3.5303150000    -1.6733020000     0.8304910000
| 21>  H        3.4401960000    -1.3633760000    -2.0673160000
| 22>  H        5.5194730000    -0.2083920000    -1.9642490000
| 23>  H        5.3723750000    -0.2137850000    -0.2085540000
| 24>  H        3.6407180000     1.2805420000    -2.2250910000
| 25>  H        4.6694200000     1.9741200000    -0.9685740000
| 26>  H        2.4355500000     1.9474710000    -0.0414750000
| 27> *
| 28>
| 29>                          ****END OF INPUT****
 Total Charge           Charge          ....    0
 Multiplicity           Mult            ....    1
 Number of Electrons    NEL             ....   54
 Basis Dimension        Dim             ....  138

MULLIKEN ATOMIC CHARGES
-----------------------
   0 O :   -0.219257
   1 C :   -0.017695
   2 C :    0.083038
   3 N :   -0.224552
   4 C :    0.032649
   5 C :    0.123107
   6 N :   -0.143306
   7 H :    0.037010
   8 H :    0.039359
   9 H :    0.097517
  10 H :    0.028818
  11 H :    0.021710
  12 H :    0.012298
  13 H :    0.015821
  14 H :    0.113484
Sum of atomic charges:    0.0000000

LOEWDIN ATOMIC CHARGES
----------------------
   0 O :   -0.200357
   1 C :    0.004453
   2 C :   -0.021645
   3 N :   -0.090011
   4 C :    0.001004
   5 C :    0.008676
   6 N :   -0.006128
   7 H :    0.041569
   8 H :    0.040652
   9 H :    0.054895
  10 H :    0.029677
  11 H :    0.026247
  12 H :    0.013326
  13 H :    0.024678
  14 H :    0.072964

  Mayer bond orders larger than 0.1
B(  0-O ,  1-C ) :   2.0793 B(  1-C ,  2-C ) :   0.9434 B(  1-C ,  6-N ) :   1.2163
B(  2-C ,  3-N ) :   1.0688 B(  2-C ,  7-H ) :   0.9307 B(  2-C ,  8-H ) :   0.9153
B(  3-N ,  4-C ) :   1.0881 B(  3-N ,  9-H ) :   0.9517 B(  4-C ,  5-C ) :   1.0816
B(  4-C , 10-H ) :   0.9443 B(  4-C , 11-H ) :   0.9292 B(  5-C ,  6-N ) :   0.9925
B(  5-C , 12-H ) :   0.9240 B(  5-C , 13-H ) :   0.9272 B(  6-N , 14-H ) :   0.9166

FINAL SINGLE POINT ENERGY      -341.312739870141

DIPOLE MOMENT
-------------
                                X             Y             Z
Electronic contribution:     -4.04969       0.26253       2.64200
Nuclear contribution   :      4.93202       0.31545      -3.66589
                        -----------------------------------------
Total Dipole Moment    :      0.88233       0.57798      -1.02389
                        -----------------------------------------
Magnitude (a.u.)       :      1.47000
Magnitude (Debye)      :      3.73645

                             ****ORCA TERMINATED NORMALLY****
TOTAL RUN TIME: 0 days 0 hours 0 minutes 6 seconds 745 msec
