                         Program Version 3.0.3 - RELEASE   -
|  1> ! RI PBE def2-SVP def2-SVP/J NBO PAL2
|  2> % maxcore 2000
|  3> % output
|  4>     # printlevel mini
|  5>     print[ P_Basis ] 0
|  6>     print[ P_SCFInfo ] 1
|  7>     print[ P_SCFIterInfo ] 1
|  8>     print[ P_OrbEn ] 0
|  9>     print[ P_Cartesian ] 0
| 10> end
| 11> *xyz 0 1
| 12>  O        1.0889090000     0.1512250000     0.2500630000
| 13>  C        2.2740740000     0.0642160000     0.1304390000
| 14>  O        3.0331450000     1.2151580000     0.0487940000
| 15>  C        4.3644550000     1.1415690000    -0.0856990000
| 16>  C        5.0095600000    -0.0323540000    -0.1461180000
| 17>  N        4.3297850000    -1.2229240000    -0.0723070000
| 18>  C        3.0540050000    -1.1733260000     0.0566640000
| 19>  H        4.8340200000     2.1154980000    -0.1373100000
| 20>  H        6.0845850000    -0.0739230000    -0.2548000000
| 21>  H        2.4835530000    -2.0959380000     0.1182940000
| 22> *
| 23>
| 24>                          ****END OF INPUT****
 Total Charge           Charge          ....    0
 Multiplicity           Mult            ....    1
 Number of Electrons    NEL             ....   50
 Basis Dimension        Dim             ....  113

MULLIKEN ATOMIC CHARGES
-----------------------
   0 O :   -0.131282
   1 C :    0.130911
   2 O :   -0.157806
   3 C :    0.151354
   4 C :   -0.004077
   5 N :   -0.047634
   6 C :   -0.039643
   7 H :    0.036920
   8 H :    0.029856
   9 H :    0.031401
Sum of atomic charges:   -0.0000000

LOEWDIN ATOMIC CHARGES
----------------------
   0 O :   -0.112675
   1 C :    0.015605
   2 O :    0.018680
   3 C :    0.066405
   4 C :   -0.057523
   5 N :   -0.020895
   6 C :   -0.015344
   7 H :    0.035588
   8 H :    0.035571
   9 H :    0.034588

  Mayer bond orders larger than 0.1
B(  0-O ,  1-C ) :   2.1545 B(  1-C ,  2-O ) :   1.0118 B(  1-C ,  6-C ) :   1.0333
B(  2-O ,  3-C ) :   1.1715 B(  3-C ,  4-C ) :   1.6122 B(  3-C ,  6-C ) :   0.1103
B(  3-C ,  7-H ) :   0.9658 B(  4-C ,  5-N ) :   1.2864 B(  4-C ,  8-H ) :   0.9695
B(  5-N ,  6-C ) :   1.7839 B(  6-C ,  9-H ) :   0.9560

FINAL SINGLE POINT ENERGY      -358.734857514315

DIPOLE MOMENT
-------------
                                X             Y             Z
Electronic contribution:     -2.25587       0.50944       0.22310
Nuclear contribution   :      3.36177      -0.17484      -0.33963
                        -----------------------------------------
Total Dipole Moment    :      1.10590       0.33459      -0.11652
                        -----------------------------------------
Magnitude (a.u.)       :      1.16127
Magnitude (Debye)      :      2.95172

                             ****ORCA TERMINATED NORMALLY****
TOTAL RUN TIME: 0 days 0 hours 0 minutes 5 seconds 430 msec
