                         Program Version 3.0.3 - RELEASE   -
|  1> ! RI PBE def2-SVP def2-SVP/J NBO PAL2
|  2> % maxcore 2000
|  3> % output
|  4>     # printlevel mini
|  5>     print[ P_Basis ] 0
|  6>     print[ P_SCFInfo ] 1
|  7>     print[ P_SCFIterInfo ] 1
|  8>     print[ P_OrbEn ] 0
|  9>     print[ P_Cartesian ] 0
| 10> end
| 11> *xyz 0 1
| 12>  O        1.3388670000     0.1236330000     0.7242840000
| 13>  C        2.3171310000     0.0424990000     0.0386880000
| 14>  C        3.0216170000    -1.2808980000    -0.2021840000
| 15>  N        4.0309490000    -1.3254880000    -1.2390800000
| 16>  C        4.8159710000    -0.1097240000    -1.2162950000
| 17>  C        3.9503840000     1.1129890000    -1.3993610000
| 18>  O        2.8500960000     1.1595490000    -0.4852490000
| 19>  H        2.2480870000    -2.0275570000    -0.3840950000
| 20>  H        3.4768600000    -1.5450420000     0.7608160000
| 21>  H        3.5943730000    -1.4378090000    -2.1463340000
| 22>  H        5.5761620000    -0.1382770000    -2.0012330000
| 23>  H        5.3433080000    -0.0594890000    -0.2569610000
| 24>  H        3.5400790000     1.1381890000    -2.4158060000
| 25>  H        4.5079260000     2.0382260000    -1.2367990000
| 26> *
| 27>
| 28>                          ****END OF INPUT****
 Total Charge           Charge          ....    0
 Multiplicity           Mult            ....    1
 Number of Electrons    NEL             ....   54
 Basis Dimension        Dim             ....  133

MULLIKEN ATOMIC CHARGES
-----------------------
   0 O :   -0.165876
   1 C :    0.072947
   2 C :    0.049203
   3 N :   -0.222875
   4 C :    0.017078
   5 C :    0.181407
   6 O :   -0.240107
   7 H :    0.048882
   8 H :    0.050146
   9 H :    0.100311
  10 H :    0.034986
  11 H :    0.028983
  12 H :    0.017459
  13 H :    0.027456
Sum of atomic charges:    0.0000000

LOEWDIN ATOMIC CHARGES
----------------------
   0 O :   -0.137014
   1 C :    0.019436
   2 C :   -0.031825
   3 N :   -0.088819
   4 C :   -0.011802
   5 C :    0.059546
   6 O :   -0.066006
   7 H :    0.046520
   8 H :    0.046852
   9 H :    0.055880
  10 H :    0.034887
  11 H :    0.028740
  12 H :    0.016550
  13 H :    0.027055

  Mayer bond orders larger than 0.1
B(  0-O ,  1-C ) :   2.1364 B(  1-C ,  2-C ) :   0.9472 B(  1-C ,  6-O ) :   1.1633
B(  2-C ,  3-N ) :   1.0637 B(  2-C ,  7-H ) :   0.9317 B(  2-C ,  8-H ) :   0.9140
B(  3-N ,  4-C ) :   1.0771 B(  3-N ,  9-H ) :   0.9494 B(  4-C ,  5-C ) :   1.0849
B(  4-C , 10-H ) :   0.9363 B(  4-C , 11-H ) :   0.9272 B(  5-C ,  6-O ) :   0.9385
B(  5-C , 12-H ) :   0.9325 B(  5-C , 13-H ) :   0.9357

FINAL SINGLE POINT ENERGY      -361.140910307783

DIPOLE MOMENT
-------------
                                X             Y             Z
Electronic contribution:     -4.53338       1.50851       2.59106
Nuclear contribution   :      5.63355      -1.70453      -3.63989
                        -----------------------------------------
Total Dipole Moment    :      1.10016      -0.19602      -1.04884
                        -----------------------------------------
Magnitude (a.u.)       :      1.53259
Magnitude (Debye)      :      3.89555

                             ****ORCA TERMINATED NORMALLY****
TOTAL RUN TIME: 0 days 0 hours 0 minutes 6 seconds 585 msec
