                         Program Version 3.0.3 - RELEASE   -
|  1> ! RI PBE def2-SVP def2-SVP/J NBO PAL2
|  2> % maxcore 2000
|  3> % output
|  4>     # printlevel mini
|  5>     print[ P_Basis ] 0
|  6>     print[ P_SCFInfo ] 1
|  7>     print[ P_SCFIterInfo ] 1
|  8>     print[ P_OrbEn ] 0
|  9>     print[ P_Cartesian ] 0
| 10> end
| 11> *xyz 0 1
| 12>  O        1.0514590000    -0.0256160000    -0.0668080000
| 13>  C        2.3979670000     0.0549060000    -0.0643300000
| 14>  C        3.1115810000     1.2456280000    -0.0612450000
| 15>  N        4.4361250000     1.2724120000    -0.0588860000
| 16>  C        5.0526970000     0.0988080000    -0.0596230000
| 17>  N        4.4716390000    -1.0944350000    -0.0624890000
| 18>  C        3.1481200000    -1.1155590000    -0.0648350000
| 19>  H        0.6699810000     0.8578520000    -0.0660140000
| 20>  H        2.5929840000     2.2048260000    -0.0606680000
| 21>  H        6.1382090000     0.1158860000    -0.0576950000
| 22>  H        2.6514380000    -2.0821870000    -0.0671980000
| 23> *
| 24>
| 25>                          ****END OF INPUT****
 Total Charge           Charge          ....    0
 Multiplicity           Mult            ....    1
 Number of Electrons    NEL             ....   50
 Basis Dimension        Dim             ....  118

MULLIKEN ATOMIC CHARGES
-----------------------
   0 O :   -0.142744
   1 C :    0.052940
   2 C :   -0.005264
   3 N :   -0.087292
   4 C :    0.037756
   5 N :   -0.089172
   6 C :    0.036576
   7 H :    0.174028
   8 H :   -0.005640
   9 H :    0.020740
  10 H :    0.008071
Sum of atomic charges:   -0.0000000

LOEWDIN ATOMIC CHARGES
----------------------
   0 O :   -0.012109
   1 C :   -0.009617
   2 C :   -0.023706
   3 N :   -0.064036
   4 C :    0.006015
   5 N :   -0.062652
   6 C :    0.008685
   7 H :    0.092140
   8 H :    0.020031
   9 H :    0.017494
  10 H :    0.027756

  Mayer bond orders larger than 0.1
B(  0-O ,  1-C ) :   1.2253 B(  0-O ,  7-H ) :   0.9610 B(  1-C ,  2-C ) :   1.2986
B(  1-C ,  6-C ) :   1.3173 B(  2-C ,  3-N ) :   1.5608 B(  2-C ,  8-H ) :   0.9706
B(  3-N ,  4-C ) :   1.5122 B(  4-C ,  5-N ) :   1.5015 B(  4-C ,  9-H ) :   0.9640
B(  5-N ,  6-C ) :   1.5682 B(  6-C , 10-H ) :   0.9711

FINAL SINGLE POINT ENERGY      -338.904331733839

DIPOLE MOMENT
-------------
                                X             Y             Z
Electronic contribution:      0.10112      -0.27247      -0.00023
Nuclear contribution   :     -1.14906       0.76979      -0.00073
                        -----------------------------------------
Total Dipole Moment    :     -1.04793       0.49732      -0.00096
                        -----------------------------------------
Magnitude (a.u.)       :      1.15996
Magnitude (Debye)      :      2.94837

                             ****ORCA TERMINATED NORMALLY****
TOTAL RUN TIME: 0 days 0 hours 0 minutes 5 seconds 729 msec
