                         Program Version 3.0.3 - RELEASE   -
|  1> ! RI PBE def2-SVP def2-SVP/J NBO PAL2
|  2> % maxcore 2000
|  3> % output
|  4>     # printlevel mini
|  5>     print[ P_Basis ] 0
|  6>     print[ P_SCFInfo ] 1
|  7>     print[ P_SCFIterInfo ] 1
|  8>     print[ P_OrbEn ] 0
|  9>     print[ P_Cartesian ] 0
| 10> end
| 11> *xyz 0 1
| 12>  O        0.8301090000     0.0410050000    -0.0524360000
| 13>  C        2.0339170000     0.0360880000    -0.0394100000
| 14>  C        2.7803010000     1.3548760000    -0.0282010000
| 15>  N        4.2094350000     1.1905110000    -0.0128740000
| 16>  C        4.8132490000    -0.0282670000    -0.0089070000
| 17>  N        4.2700350000    -1.1744030000    -0.0174550000
| 18>  C        2.8302810000    -1.2467350000    -0.0336260000
| 19>  H        2.4256670000     1.9086500000     0.8491850000
| 20>  H        2.4450040000     1.9126570000    -0.9106380000
| 21>  H        4.7898250000     2.0094560000    -0.0046180000
| 22>  H        5.9022900000     0.0293300000     0.0033160000
| 23>  H        2.4801930000    -1.8274340000     0.8289800000
| 24>  H        2.4994950000    -1.8232440000    -0.9066050000
| 25> *
| 26>
| 27>                          ****END OF INPUT****
 Total Charge           Charge          ....    0
 Multiplicity           Mult            ....    1
 Number of Electrons    NEL             ....   52
 Basis Dimension        Dim             ....  128

MULLIKEN ATOMIC CHARGES
-----------------------
   0 O :   -0.166257
   1 C :   -0.153169
   2 C :    0.182369
   3 N :   -0.174267
   4 C :    0.040059
   5 N :   -0.210157
   6 C :    0.140505
   7 H :    0.051540
   8 H :    0.051613
   9 H :    0.115102
  10 H :    0.014153
  11 H :    0.054310
  12 H :    0.054197
Sum of atomic charges:   -0.0000000

LOEWDIN ATOMIC CHARGES
----------------------
   0 O :   -0.114650
   1 C :    0.045469
   2 C :   -0.005012
   3 N :   -0.020908
   4 C :    0.008012
   5 N :   -0.164596
   6 C :   -0.032210
   7 H :    0.043397
   8 H :    0.043432
   9 H :    0.073947
  10 H :    0.018192
  11 H :    0.052467
  12 H :    0.052460

  Mayer bond orders larger than 0.1
B(  0-O ,  1-C ) :   2.1538 B(  1-C ,  2-C ) :   0.9565 B(  1-C ,  6-C ) :   0.9633
B(  2-C ,  3-N ) :   0.9859 B(  2-C ,  7-H ) :   0.9167 B(  2-C ,  8-H ) :   0.9166
B(  3-N ,  4-C ) :   1.1877 B(  3-N ,  5-N ) :   0.1402 B(  3-N ,  9-H ) :   0.9234
B(  4-C ,  5-N ) :   1.8859 B(  4-C , 10-H ) :   0.9506 B(  5-N ,  6-C ) :   1.0868
B(  6-C , 11-H ) :   0.9063 B(  6-C , 12-H ) :   0.9062

FINAL SINGLE POINT ENERGY      -340.090546427936

DIPOLE MOMENT
-------------
                                X             Y             Z
Electronic contribution:     -1.25463      -0.60906      -0.01446
Nuclear contribution   :      1.90142       1.81404       0.02461
                        -----------------------------------------
Total Dipole Moment    :      0.64679       1.20498       0.01015
                        -----------------------------------------
Magnitude (a.u.)       :      1.36763
Magnitude (Debye)      :      3.47624

                             ****ORCA TERMINATED NORMALLY****
TOTAL RUN TIME: 0 days 0 hours 0 minutes 6 seconds 297 msec
