                         Program Version 3.0.3 - RELEASE   -
|  1> ! RI PBE def2-SVP def2-SVP/J NBO PAL2
|  2> % maxcore 2000
|  3> % output
|  4>     # printlevel mini
|  5>     print[ P_Basis ] 0
|  6>     print[ P_SCFInfo ] 1
|  7>     print[ P_SCFIterInfo ] 1
|  8>     print[ P_OrbEn ] 0
|  9>     print[ P_Cartesian ] 0
| 10> end
| 11> *xyz 0 1
| 12>  O        1.1007410000     0.0049870000     0.7658940000
| 13>  C        2.3558330000     0.0682780000     0.1238970000
| 14>  C        2.4569070000     1.2898870000    -0.7800800000
| 15>  N        3.6816490000     1.1883990000    -1.5351370000
| 16>  C        4.1031280000    -0.0405160000    -1.9611610000
| 17>  N        3.6394080000    -1.1730470000    -1.6255330000
| 18>  C        2.5183290000    -1.1935100000    -0.7054900000
| 19>  H        1.0639280000     0.6806570000     1.4474870000
| 20>  H        3.1697340000     0.1146170000     0.8609190000
| 21>  H        2.4700060000     2.2077180000    -0.1839520000
| 22>  H        1.5680020000     1.3190400000    -1.4243350000
| 23>  H        4.0174490000     1.9954510000    -2.0296450000
| 24>  H        4.9514400000    -0.0040120000    -2.6456360000
| 25>  H        2.6289600000    -2.0517540000    -0.0372420000
| 26>  H        1.5890040000    -1.3613020000    -1.2641840000
| 27> *
| 28>
| 29>                          ****END OF INPUT****
 Total Charge           Charge          ....    0
 Multiplicity           Mult            ....    1
 Number of Electrons    NEL             ....   54
 Basis Dimension        Dim             ....  138

MULLIKEN ATOMIC CHARGES
-----------------------
   0 O :   -0.251399
   1 C :   -0.021772
   2 C :    0.154385
   3 N :   -0.179618
   4 C :    0.045969
   5 N :   -0.223318
   6 C :    0.147048
   7 H :    0.152668
   8 H :    0.012431
   9 H :   -0.001031
  10 H :    0.015169
  11 H :    0.111394
  12 H :    0.004831
  13 H :    0.016573
  14 H :    0.016671
Sum of atomic charges:    0.0000000

LOEWDIN ATOMIC CHARGES
----------------------
   0 O :   -0.104444
   1 C :    0.024269
   2 C :    0.006859
   3 N :   -0.025675
   4 C :    0.006636
   5 N :   -0.157479
   6 C :   -0.003640
   7 H :    0.069514
   8 H :    0.011276
   9 H :    0.018419
  10 H :    0.015689
  11 H :    0.070223
  12 H :    0.014199
  13 H :    0.026837
  14 H :    0.027318

  Mayer bond orders larger than 0.1
B(  0-O ,  1-C ) :   1.0835 B(  0-O ,  7-H ) :   0.9783 B(  1-C ,  2-C ) :   1.0184
B(  1-C ,  6-C ) :   1.0302 B(  1-C ,  8-H ) :   0.9185 B(  2-C ,  3-N ) :   1.0063
B(  2-C ,  9-H ) :   0.9291 B(  2-C , 10-H ) :   0.9311 B(  3-N ,  4-C ) :   1.1689
B(  3-N ,  5-N ) :   0.1251 B(  3-N , 11-H ) :   0.9297 B(  4-C ,  5-N ) :   1.8948
B(  4-C , 12-H ) :   0.9517 B(  5-N ,  6-C ) :   1.0648 B(  6-C , 13-H ) :   0.9298
B(  6-C , 14-H ) :   0.9239

FINAL SINGLE POINT ENERGY      -341.283123686763

DIPOLE MOMENT
-------------
                                X             Y             Z
Electronic contribution:      0.84683      -0.81311      -0.55353
Nuclear contribution   :     -0.80748       2.36701       0.85418
                        -----------------------------------------
Total Dipole Moment    :      0.03935       1.55390       0.30065
                        -----------------------------------------
Magnitude (a.u.)       :      1.58320
Magnitude (Debye)      :      4.02418

                             ****ORCA TERMINATED NORMALLY****
TOTAL RUN TIME: 0 days 0 hours 0 minutes 6 seconds 927 msec
