                         Program Version 3.0.3 - RELEASE   -
|  1> ! RI PBE def2-SVP def2-SVP/J NBO PAL2
|  2> % maxcore 2000
|  3> % output
|  4>     # printlevel mini
|  5>     print[ P_Basis ] 0
|  6>     print[ P_SCFInfo ] 1
|  7>     print[ P_SCFIterInfo ] 1
|  8>     print[ P_OrbEn ] 0
|  9>     print[ P_Cartesian ] 0
| 10> end
| 11> *xyz 0 1
| 12>  O        1.0759460000     0.0427700000     0.0307020000
| 13>  C        2.4804320000     0.0495060000     0.0967100000
| 14>  C        3.0630350000     1.1795990000     0.9566660000
| 15>  N        4.3135310000     0.6025840000     1.3890480000
| 16>  C        4.2865950000    -0.7732310000     1.4349890000
| 17>  N        5.1441880000    -1.5849600000     1.9009620000
| 18>  C        2.9894840000    -1.1997840000     0.7955880000
| 19>  H        0.7872690000     0.7482800000    -0.5531800000
| 20>  H        2.9154930000     0.1111900000    -0.9094620000
| 21>  H        2.3730690000     1.3872640000     1.7863030000
| 22>  H        3.2200220000     2.1042030000     0.3940180000
| 23>  H        4.9593890000     1.1165990000     1.9639860000
| 24>  H        5.9389170000    -1.0979400000     2.3130730000
| 25>  H        2.2819440000    -1.4773690000     1.5838190000
| 26>  H        3.1230750000    -2.0610120000     0.1439790000
| 27> *
| 28>
| 29>                          ****END OF INPUT****
 Total Charge           Charge          ....    0
 Multiplicity           Mult            ....    1
 Number of Electrons    NEL             ....   54
 Basis Dimension        Dim             ....  138

MULLIKEN ATOMIC CHARGES
-----------------------
   0 O :   -0.240254
   1 C :   -0.015398
   2 C :    0.168624
   3 N :   -0.176276
   4 C :   -0.178443
   5 N :   -0.090485
   6 C :    0.106347
   7 H :    0.156153
   8 H :    0.009960
   9 H :    0.010974
  10 H :    0.004307
  11 H :    0.100167
  12 H :    0.069081
  13 H :    0.039907
  14 H :    0.035334
Sum of atomic charges:   -0.0000000

LOEWDIN ATOMIC CHARGES
----------------------
   0 O :   -0.104115
   1 C :    0.042703
   2 C :    0.009696
   3 N :   -0.026771
   4 C :    0.000084
   5 N :   -0.180272
   6 C :   -0.043110
   7 H :    0.072165
   8 H :    0.012324
   9 H :    0.011256
  10 H :    0.015145
  11 H :    0.064133
  12 H :    0.038069
  13 H :    0.047906
  14 H :    0.040787

  Mayer bond orders larger than 0.1
B(  0-O ,  1-C ) :   1.1313 B(  0-O ,  7-H ) :   0.9788 B(  1-C ,  2-C ) :   1.0222
B(  1-C ,  6-C ) :   1.0611 B(  1-C ,  8-H ) :   0.9201 B(  2-C ,  3-N ) :   0.9956
B(  2-C ,  9-H ) :   0.9213 B(  2-C , 10-H ) :   0.9316 B(  3-N ,  4-C ) :   1.1629
B(  3-N , 11-H ) :   0.9310 B(  4-C ,  5-N ) :   2.0235 B(  4-C ,  6-C ) :   0.9725
B(  5-N , 12-H ) :   0.9233 B(  6-C , 13-H ) :   0.8982 B(  6-C , 14-H ) :   0.9256

FINAL SINGLE POINT ENERGY      -341.291217071899

DIPOLE MOMENT
-------------
                                X             Y             Z
Electronic contribution:      0.54375      -0.79525       0.31318
Nuclear contribution   :     -0.69840       2.36771      -0.65459
                        -----------------------------------------
Total Dipole Moment    :     -0.15465       1.57246      -0.34141
                        -----------------------------------------
Magnitude (a.u.)       :      1.61651
Magnitude (Debye)      :      4.10885

                             ****ORCA TERMINATED NORMALLY****
TOTAL RUN TIME: 0 days 0 hours 0 minutes 7 seconds 377 msec
