                         Program Version 3.0.3 - RELEASE   -
|  1> ! RI PBE def2-SVP def2-SVP/J NBO PAL2
|  2> % maxcore 2000
|  3> % output
|  4>     # printlevel mini
|  5>     print[ P_Basis ] 0
|  6>     print[ P_SCFInfo ] 1
|  7>     print[ P_SCFIterInfo ] 1
|  8>     print[ P_OrbEn ] 0
|  9>     print[ P_Cartesian ] 0
| 10> end
| 11> *xyz 0 1
| 12>  O        1.2100020000     0.0341380000     0.7513550000
| 13>  C        2.3180120000     0.0355680000     0.2985280000
| 14>  C        3.1349110000     1.2937820000     0.0213620000
| 15>  N        4.3670880000     0.7739570000    -0.5058330000
| 16>  C        4.4580100000    -0.5819610000    -0.6041720000
| 17>  O        5.4106550000    -1.1934920000    -1.0212250000
| 18>  C        3.1511030000    -1.1587870000    -0.0958760000
| 19>  H        3.2636740000     1.8569350000     0.9522550000
| 20>  H        2.5936460000     1.9309240000    -0.6867070000
| 21>  H        5.1399080000     1.3498360000    -0.7958060000
| 22>  H        3.3200820000    -1.8230460000     0.7549810000
| 23>  H        2.6558070000    -1.7498640000    -0.8698630000
| 24> *
| 25>
| 26>                          ****END OF INPUT****
 Total Charge           Charge          ....    0
 Multiplicity           Mult            ....    1
 Number of Electrons    NEL             ....   52
 Basis Dimension        Dim             ....  123

MULLIKEN ATOMIC CHARGES
-----------------------
   0 O :   -0.130158
   1 C :   -0.128312
   2 C :    0.180404
   3 N :   -0.183461
   4 C :    0.015974
   5 O :   -0.177290
   6 C :    0.033011
   7 H :    0.055587
   8 H :    0.056498
   9 H :    0.118182
  10 H :    0.080520
  11 H :    0.079045
Sum of atomic charges:   -0.0000000

LOEWDIN ATOMIC CHARGES
----------------------
   0 O :   -0.097130
   1 C :    0.055219
   2 C :   -0.000167
   3 N :   -0.003562
   4 C :    0.016877
   5 O :   -0.175949
   6 C :   -0.090651
   7 H :    0.040980
   8 H :    0.040860
   9 H :    0.076476
  10 H :    0.068759
  11 H :    0.068290

  Mayer bond orders larger than 0.1
B(  0-O ,  1-C ) :   2.2267 B(  1-C ,  2-C ) :   0.9327 B(  1-C ,  6-C ) :   1.0001
B(  2-C ,  3-N ) :   0.9928 B(  2-C ,  7-H ) :   0.9156 B(  2-C ,  8-H ) :   0.9170
B(  3-N ,  4-C ) :   1.1909 B(  3-N ,  9-H ) :   0.9187 B(  4-C ,  5-O ) :   2.1584
B(  4-C ,  6-C ) :   0.9205 B(  6-C , 10-H ) :   0.8944 B(  6-C , 11-H ) :   0.8960

FINAL SINGLE POINT ENERGY      -359.971003598862

DIPOLE MOMENT
-------------
                                X             Y             Z
Electronic contribution:      0.19134      -1.03029      -0.12509
Nuclear contribution   :     -0.22230       1.98322       0.18061
                        -----------------------------------------
Total Dipole Moment    :     -0.03095       0.95292       0.05552
                        -----------------------------------------
Magnitude (a.u.)       :      0.95504
Magnitude (Debye)      :      2.42752

                             ****ORCA TERMINATED NORMALLY****
TOTAL RUN TIME: 0 days 0 hours 0 minutes 5 seconds 294 msec
