                         Program Version 3.0.3 - RELEASE   -
|  1> ! RI PBE def2-SVP def2-SVP/J NBO PAL2
|  2> % maxcore 2000
|  3> % output
|  4>     # printlevel mini
|  5>     print[ P_Basis ] 0
|  6>     print[ P_SCFInfo ] 1
|  7>     print[ P_SCFIterInfo ] 1
|  8>     print[ P_OrbEn ] 0
|  9>     print[ P_Cartesian ] 0
| 10> end
| 11> *xyz 0 1
| 12>  O        0.9820370000    -0.0836690000     0.0673060000
| 13>  C        2.3877970000    -0.0781320000     0.0714060000
| 14>  C        3.0037360000     1.0632810000     0.9003770000
| 15>  N        4.2367490000     0.4744020000     1.3588900000
| 16>  C        4.2411570000    -0.8884610000     1.3646470000
| 17>  O        5.1225590000    -1.5913820000     1.7973650000
| 18>  C        2.9290350000    -1.3282530000     0.7403990000
| 19>  H        0.6669550000     0.6310510000    -0.4917020000
| 20>  H        2.7767370000    -0.0174570000    -0.9534970000
| 21>  H        2.3247230000     1.3156530000     1.7250040000
| 22>  H        3.1817230000     1.9647540000     0.3078250000
| 23>  H        4.9592810000     0.9839400000     1.8396350000
| 24>  H        2.2531200000    -1.6369290000     1.5447530000
| 25>  H        3.0716810000    -2.1770990000     0.0740920000
| 26> *
| 27>
| 28>                          ****END OF INPUT****
 Total Charge           Charge          ....    0
 Multiplicity           Mult            ....    1
 Number of Electrons    NEL             ....   54
 Basis Dimension        Dim             ....  133

MULLIKEN ATOMIC CHARGES
-----------------------
   0 O :   -0.241317
   1 C :   -0.015286
   2 C :    0.176473
   3 N :   -0.181016
   4 C :    0.013581
   5 O :   -0.181983
   6 C :    0.029887
   7 H :    0.156752
   8 H :    0.012690
   9 H :    0.016669
  10 H :    0.011508
  11 H :    0.112402
  12 H :    0.048895
  13 H :    0.040745
Sum of atomic charges:   -0.0000000

LOEWDIN ATOMIC CHARGES
----------------------
   0 O :   -0.103964
   1 C :    0.042175
   2 C :    0.011044
   3 N :   -0.005689
   4 C :    0.021739
   5 O :   -0.180958
   6 C :   -0.066693
   7 H :    0.072318
   8 H :    0.013452
   9 H :    0.015251
  10 H :    0.017575
  11 H :    0.071645
  12 H :    0.050614
  13 H :    0.041491

  Mayer bond orders larger than 0.1
B(  0-O ,  1-C ) :   1.1270 B(  0-O ,  7-H ) :   0.9782 B(  1-C ,  2-C ) :   1.0187
B(  1-C ,  6-C ) :   1.0687 B(  1-C ,  8-H ) :   0.9184 B(  2-C ,  3-N ) :   0.9946
B(  2-C ,  9-H ) :   0.9201 B(  2-C , 10-H ) :   0.9351 B(  3-N ,  4-C ) :   1.1863
B(  3-N , 11-H ) :   0.9224 B(  4-C ,  5-O ) :   2.1614 B(  4-C ,  6-C ) :   0.9425
B(  6-C , 12-H ) :   0.8981 B(  6-C , 13-H ) :   0.9259

FINAL SINGLE POINT ENERGY      -361.160417707607

DIPOLE MOMENT
-------------
                                X             Y             Z
Electronic contribution:      2.53969      -1.74070       1.39659
Nuclear contribution   :     -3.21311       3.18801      -2.03966
                        -----------------------------------------
Total Dipole Moment    :     -0.67342       1.44731      -0.64307
                        -----------------------------------------
Magnitude (a.u.)       :      1.72097
Magnitude (Debye)      :      4.37437

                             ****ORCA TERMINATED NORMALLY****
TOTAL RUN TIME: 0 days 0 hours 0 minutes 6 seconds 349 msec
