                         Program Version 3.0.3 - RELEASE   -
|  1> ! RI PBE def2-SVP def2-SVP/J NBO PAL2
|  2> % maxcore 2000
|  3> % output
|  4>     # printlevel mini
|  5>     print[ P_Basis ] 0
|  6>     print[ P_SCFInfo ] 1
|  7>     print[ P_SCFIterInfo ] 1
|  8>     print[ P_OrbEn ] 0
|  9>     print[ P_Cartesian ] 0
| 10> end
| 11> *xyz 0 1
| 12>  O        0.8596680000    -0.0030640000    -0.0697830000
| 13>  C        2.2167140000     0.0477270000    -0.0633320000
| 14>  C        3.0533310000     1.1386660000    -0.0570780000
| 15>  N        4.3378650000     0.6722030000    -0.0520810000
| 16>  C        4.3398570000    -0.6944090000    -0.0550100000
| 17>  C        3.0294850000    -1.1103290000    -0.0620250000
| 18>  O        2.5203820000    -2.3692900000    -0.0671070000
| 19>  H        0.5140260000     0.8923900000    -0.0694250000
| 20>  H        2.8284960000     2.1929850000    -0.0558660000
| 21>  H        5.1572160000     1.2472620000    -0.0470180000
| 22>  H        5.2549430000    -1.2642770000    -0.0519560000
| 23>  H        3.2449960000    -2.9987630000    -0.0651180000
| 24> *
| 25>
| 26>                          ****END OF INPUT****
 Total Charge           Charge          ....    0
 Multiplicity           Mult            ....    1
 Number of Electrons    NEL             ....   52
 Basis Dimension        Dim             ....  123

MULLIKEN ATOMIC CHARGES
-----------------------
   0 O :   -0.168423
   1 C :    0.085744
   2 C :   -0.084197
   3 N :   -0.058870
   4 C :   -0.074617
   5 C :    0.083673
   6 O :   -0.168687
   7 H :    0.164851
   8 H :   -0.024819
   9 H :    0.112922
  10 H :   -0.032027
  11 H :    0.164451
Sum of atomic charges:   -0.0000000

LOEWDIN ATOMIC CHARGES
----------------------
   0 O :   -0.039831
   1 C :   -0.038056
   2 C :   -0.105009
   3 N :    0.089237
   4 C :   -0.102929
   5 C :   -0.038642
   6 O :   -0.039692
   7 H :    0.085178
   8 H :    0.012819
   9 H :    0.080076
  10 H :    0.011864
  11 H :    0.084987

  Mayer bond orders larger than 0.1
B(  0-O ,  1-C ) :   1.2055 B(  0-O ,  7-H ) :   0.9705 B(  1-C ,  2-C ) :   1.3965
B(  1-C ,  5-C ) :   1.3578 B(  2-C ,  3-N ) :   1.1851 B(  2-C ,  4-C ) :   0.1217
B(  2-C ,  8-H ) :   0.9979 B(  3-N ,  4-C ) :   1.1870 B(  3-N ,  9-H ) :   0.9439
B(  4-C ,  5-C ) :   1.3997 B(  4-C , 10-H ) :   0.9951 B(  5-C ,  6-O ) :   1.2021
B(  6-O , 11-H ) :   0.9713

FINAL SINGLE POINT ENERGY      -359.924524365353

DIPOLE MOMENT
-------------
                                X             Y             Z
Electronic contribution:     -1.49223      -1.04908      -0.00900
Nuclear contribution   :      2.48767       1.74597       0.01538
                        -----------------------------------------
Total Dipole Moment    :      0.99544       0.69688       0.00638
                        -----------------------------------------
Magnitude (a.u.)       :      1.21515
Magnitude (Debye)      :      3.08866

                             ****ORCA TERMINATED NORMALLY****
TOTAL RUN TIME: 0 days 0 hours 0 minutes 5 seconds 819 msec
