                         Program Version 3.0.3 - RELEASE   -
|  1> ! RI PBE def2-SVP def2-SVP/J NBO PAL2
|  2> % maxcore 2000
|  3> % output
|  4>     # printlevel mini
|  5>     print[ P_Basis ] 0
|  6>     print[ P_SCFInfo ] 1
|  7>     print[ P_SCFIterInfo ] 1
|  8>     print[ P_OrbEn ] 0
|  9>     print[ P_Cartesian ] 0
| 10> end
| 11> *xyz 0 1
| 12>  O        1.0691380000    -0.0392320000    -0.0030930000
| 13>  C        2.4115410000     0.1067880000     0.0036840000
| 14>  C        3.2279050000     1.2123320000     0.0085280000
| 15>  C        4.5600300000     0.7060660000     0.0147600000
| 16>  O        5.7095780000     1.4306000000     0.0209600000
| 17>  C        4.5116910000    -0.6578110000     0.0135300000
| 18>  N        3.1686230000    -1.0053300000     0.0066310000
| 19>  H        0.6655320000     0.8316690000    -0.0042200000
| 20>  H        2.9156090000     2.2459180000     0.0077010000
| 21>  H        5.4851540000     2.3630450000     0.0206770000
| 22>  H        5.2953340000    -1.3944420000     0.0168760000
| 23>  H        2.8000840000    -1.9381030000     0.0041450000
| 24> *
| 25>
| 26>                          ****END OF INPUT****
 Total Charge           Charge          ....    0
 Multiplicity           Mult            ....    1
 Number of Electrons    NEL             ....   52
 Basis Dimension        Dim             ....  123

MULLIKEN ATOMIC CHARGES
-----------------------
   0 O :   -0.161297
   1 C :    0.126144
   2 C :   -0.181919
   3 C :    0.120638
   4 O :   -0.178536
   5 C :   -0.036185
   6 N :   -0.065515
   7 H :    0.180094
   8 H :   -0.055776
   9 H :    0.164266
  10 H :   -0.024866
  11 H :    0.112952
Sum of atomic charges:   -0.0000000

LOEWDIN ATOMIC CHARGES
----------------------
   0 O :   -0.038044
   1 C :    0.018257
   2 C :   -0.200050
   3 C :   -0.011858
   4 O :   -0.045247
   5 C :   -0.098632
   6 N :    0.081272
   7 H :    0.095960
   8 H :    0.014969
   9 H :    0.083726
  10 H :    0.016686
  11 H :    0.082960

  Mayer bond orders larger than 0.1
B(  0-O ,  1-C ) :   1.2188 B(  0-O ,  7-H ) :   0.9667 B(  1-C ,  2-C ) :   1.3560
B(  1-C ,  6-N ) :   1.2649 B(  2-C ,  3-C ) :   1.2198 B(  2-C ,  8-H ) :   1.0106
B(  3-C ,  4-O ) :   1.1829 B(  3-C ,  5-C ) :   1.4910 B(  4-O ,  9-H ) :   0.9752
B(  5-C ,  6-N ) :   1.1069 B(  5-C , 10-H ) :   0.9984 B(  6-N , 11-H ) :   0.9343

FINAL SINGLE POINT ENERGY      -359.933437256723

DIPOLE MOMENT
-------------
                                X             Y             Z
Electronic contribution:     -0.45885      -0.41258      -0.00259
Nuclear contribution   :     -0.32337       0.71806      -0.00075
                        -----------------------------------------
Total Dipole Moment    :     -0.78222       0.30548      -0.00334
                        -----------------------------------------
Magnitude (a.u.)       :      0.83976
Magnitude (Debye)      :      2.13451

                             ****ORCA TERMINATED NORMALLY****
TOTAL RUN TIME: 0 days 0 hours 0 minutes 5 seconds 608 msec
