                         Program Version 3.0.3 - RELEASE   -
|  1> ! RI PBE def2-SVP def2-SVP/J NBO PAL2
|  2> % maxcore 2000
|  3> % output
|  4>     # printlevel mini
|  5>     print[ P_Basis ] 0
|  6>     print[ P_SCFInfo ] 1
|  7>     print[ P_SCFIterInfo ] 1
|  8>     print[ P_OrbEn ] 0
|  9>     print[ P_Cartesian ] 0
| 10> end
| 11> *xyz 0 1
| 12>  O        0.8818010000     0.0063240000    -0.5049900000
| 13>  C        2.0391280000     0.0645240000    -0.1836190000
| 14>  C        2.9457220000     1.2473350000    -0.2050790000
| 15>  N        4.1166660000     0.9888280000     0.2280660000
| 16>  N        4.1590830000    -0.3204330000     0.7640580000
| 17>  C        4.2176280000    -1.2832690000    -0.3151490000
| 18>  C        2.9190270000    -0.9957600000     0.3763070000
| 19>  H        2.6951050000     2.2193110000    -0.6130030000
| 20>  H        4.7079160000    -2.2238690000    -0.0915650000
| 21>  H        4.3692230000    -0.8857300000    -1.3131560000
| 22>  H        2.5030000000    -1.7326600000     1.0511310000
| 23> *
| 24>
| 25>                          ****END OF INPUT****
 Total Charge           Charge          ....    0
 Multiplicity           Mult            ....    1
 Number of Electrons    NEL             ....   50
 Basis Dimension        Dim             ....  118

MULLIKEN ATOMIC CHARGES
-----------------------
   0 O :   -0.125639
   1 C :    0.121210
   2 C :   -0.037975
   3 N :   -0.025877
   4 N :   -0.146551
   5 C :    0.113835
   6 C :   -0.116506
   7 H :    0.030520
   8 H :    0.064901
   9 H :    0.061313
  10 H :    0.060770
Sum of atomic charges:    0.0000000

LOEWDIN ATOMIC CHARGES
----------------------
   0 O :   -0.106656
   1 C :    0.006353
   2 C :   -0.033695
   3 N :   -0.003954
   4 N :   -0.029759
   5 C :    0.052826
   6 C :   -0.031289
   7 H :    0.033733
   8 H :    0.038109
   9 H :    0.029603
  10 H :    0.044729

  Mayer bond orders larger than 0.1
B(  0-O ,  1-C ) :   2.1644 B(  1-C ,  2-C ) :   0.9508 B(  1-C ,  6-C ) :   0.9590
B(  2-C ,  3-N ) :   1.8192 B(  2-C ,  7-H ) :   0.9714 B(  3-N ,  4-N ) :   1.0166
B(  4-N ,  5-C ) :   0.9425 B(  4-N ,  6-C ) :   0.8974 B(  5-C ,  6-C ) :   0.9793
B(  5-C ,  8-H ) :   0.9444 B(  5-C ,  9-H ) :   0.9281 B(  6-C , 10-H ) :   0.9456

FINAL SINGLE POINT ENERGY      -338.827458636458

DIPOLE MOMENT
-------------
                                X             Y             Z
Electronic contribution:     -1.64945       1.70443       0.70232
Nuclear contribution   :      2.04736      -2.26837      -0.94458
                        -----------------------------------------
Total Dipole Moment    :      0.39791      -0.56394      -0.24226
                        -----------------------------------------
Magnitude (a.u.)       :      0.73147
Magnitude (Debye)      :      1.85926

                             ****ORCA TERMINATED NORMALLY****
TOTAL RUN TIME: 0 days 0 hours 0 minutes 5 seconds 490 msec
