                         Program Version 3.0.3 - RELEASE   -
|  1> ! RI PBE def2-SVP def2-SVP/J NBO PAL2
|  2> % maxcore 2000
|  3> % output
|  4>     # printlevel mini
|  5>     print[ P_Basis ] 0
|  6>     print[ P_SCFInfo ] 1
|  7>     print[ P_SCFIterInfo ] 1
|  8>     print[ P_OrbEn ] 0
|  9>     print[ P_Cartesian ] 0
| 10> end
| 11> *xyz 0 1
| 12>  O        1.0534790000     0.2799780000    -0.3210710000
| 13>  C        2.4385500000     0.1177960000    -0.0774220000
| 14>  C        3.0554800000     1.2731130000     0.6750400000
| 15>  N        3.4022970000     1.0215550000     1.8701300000
| 16>  N        3.0708950000    -0.3158470000     2.2053640000
| 17>  C        3.9627630000    -1.2311770000     1.4888580000
| 18>  C        2.6152990000    -0.9589740000     0.9541470000
| 19>  H        0.9345330000     0.9197280000    -1.0277210000
| 20>  H        2.9700650000    -0.0848460000    -1.0167830000
| 21>  H        3.2140540000     2.2649420000     0.2614200000
| 22>  H        4.1529280000    -2.1758790000     1.9855820000
| 23>  H        4.8190380000    -0.7764010000     1.0013500000
| 24>  H        1.8252190000    -1.6937970000     1.0488060000
| 25> *
| 26>
| 27>                          ****END OF INPUT****
 Total Charge           Charge          ....    0
 Multiplicity           Mult            ....    1
 Number of Electrons    NEL             ....   52
 Basis Dimension        Dim             ....  128

MULLIKEN ATOMIC CHARGES
-----------------------
   0 O :   -0.252885
   1 C :    0.221240
   2 C :   -0.060310
   3 N :   -0.052158
   4 N :   -0.179851
   5 C :    0.120686
   6 C :   -0.113829
   7 H :    0.155908
   8 H :    0.017638
   9 H :    0.018839
  10 H :    0.043220
  11 H :    0.036597
  12 H :    0.044905
Sum of atomic charges:   -0.0000000

LOEWDIN ATOMIC CHARGES
----------------------
   0 O :   -0.103776
   1 C :    0.022881
   2 C :   -0.034835
   3 N :   -0.025127
   4 N :   -0.062806
   5 C :    0.023235
   6 C :   -0.017428
   7 H :    0.072654
   8 H :    0.016482
   9 H :    0.020761
  10 H :    0.030745
  11 H :    0.022305
  12 H :    0.034908

  Mayer bond orders larger than 0.1
B(  0-O ,  1-C ) :   1.0638 B(  0-O ,  7-H ) :   0.9755 B(  1-C ,  2-C ) :   0.9414
B(  1-C ,  6-C ) :   1.0117 B(  1-C ,  8-H ) :   0.8984 B(  2-C ,  3-N ) :   1.9019
B(  2-C ,  9-H ) :   0.9608 B(  3-N ,  4-N ) :   0.9879 B(  4-N ,  5-C ) :   0.9360
B(  4-N ,  6-C ) :   0.9101 B(  5-C ,  6-C ) :   1.0272 B(  5-C , 10-H ) :   0.9396
B(  5-C , 11-H ) :   0.9282 B(  6-C , 12-H ) :   0.9291

FINAL SINGLE POINT ENERGY      -340.009654184543

DIPOLE MOMENT
-------------
                                X             Y             Z
Electronic contribution:     -1.03445       1.48795       1.68439
Nuclear contribution   :      1.26287      -1.62742      -3.09927
                        -----------------------------------------
Total Dipole Moment    :      0.22842      -0.13947      -1.41487
                        -----------------------------------------
Magnitude (a.u.)       :      1.43996
Magnitude (Debye)      :      3.66010

                             ****ORCA TERMINATED NORMALLY****
TOTAL RUN TIME: 0 days 0 hours 0 minutes 6 seconds 245 msec
