                         Program Version 3.0.3 - RELEASE   -
|  1> ! RI PBE def2-SVP def2-SVP/J NBO PAL2
|  2> % maxcore 2000
|  3> % output
|  4>     # printlevel mini
|  5>     print[ P_Basis ] 0
|  6>     print[ P_SCFInfo ] 1
|  7>     print[ P_SCFIterInfo ] 1
|  8>     print[ P_OrbEn ] 0
|  9>     print[ P_Cartesian ] 0
| 10> end
| 11> *xyz 0 1
| 12>  O        0.8716330000     0.1141210000    -0.1127980000
| 13>  C        2.0741760000     0.0769800000    -0.0933580000
| 14>  C        2.8605410000     1.3692050000    -0.0767930000
| 15>  N        4.2906190000     1.2006320000    -0.0534320000
| 16>  N        4.9500030000     0.0453700000    -0.0467370000
| 17>  C        4.3216040000    -1.0634060000    -0.0604880000
| 18>  C        2.8348250000    -1.2207760000    -0.0847470000
| 19>  H        2.5076450000     1.9297770000     0.7985230000
| 20>  H        2.5368330000     1.9344540000    -0.9603640000
| 21>  H        4.8825940000     2.0086120000    -0.0416420000
| 22>  H        4.9407780000    -1.9540340000    -0.0534330000
| 23>  H        2.4798220000    -1.7984490000     0.7775670000
| 24>  H        2.5076290000    -1.7937050000    -0.9610990000
| 25> *
| 26>
| 27>                          ****END OF INPUT****
 Total Charge           Charge          ....    0
 Multiplicity           Mult            ....    1
 Number of Electrons    NEL             ....   52
 Basis Dimension        Dim             ....  128

MULLIKEN ATOMIC CHARGES
-----------------------
   0 O :   -0.161989
   1 C :   -0.147580
   2 C :    0.193788
   3 N :   -0.147279
   4 N :   -0.051535
   5 C :   -0.142096
   6 C :    0.104262
   7 H :    0.050600
   8 H :    0.050681
   9 H :    0.123507
  10 H :    0.006271
  11 H :    0.060746
  12 H :    0.060625
Sum of atomic charges:   -0.0000000

LOEWDIN ATOMIC CHARGES
----------------------
   0 O :   -0.112683
   1 C :    0.060510
   2 C :   -0.020230
   3 N :    0.001500
   4 N :   -0.035644
   5 C :   -0.096307
   6 C :   -0.091714
   7 H :    0.045240
   8 H :    0.045269
   9 H :    0.066617
  10 H :    0.017056
  11 H :    0.060203
  12 H :    0.060184

  Mayer bond orders larger than 0.1
B(  0-O ,  1-C ) :   2.1662 B(  1-C ,  2-C ) :   0.9634 B(  1-C ,  6-C ) :   0.9880
B(  2-C ,  3-N ) :   0.9615 B(  2-C ,  7-H ) :   0.9086 B(  2-C ,  8-H ) :   0.9085
B(  3-N ,  4-N ) :   1.1449 B(  3-N ,  5-C ) :   0.1619 B(  3-N ,  9-H ) :   0.9432
B(  4-N ,  5-C ) :   1.8912 B(  5-C ,  6-C ) :   0.9667 B(  5-C , 10-H ) :   0.9596
B(  6-C , 11-H ) :   0.8951 B(  6-C , 12-H ) :   0.8951

FINAL SINGLE POINT ENERGY      -340.062452688910

DIPOLE MOMENT
-------------
                                X             Y             Z
Electronic contribution:     -0.64414       0.64015      -0.00802
Nuclear contribution   :      0.90244      -0.23504       0.01340
                        -----------------------------------------
Total Dipole Moment    :      0.25830       0.40511       0.00538
                        -----------------------------------------
Magnitude (a.u.)       :      0.48048
Magnitude (Debye)      :      1.22129

                             ****ORCA TERMINATED NORMALLY****
TOTAL RUN TIME: 0 days 0 hours 0 minutes 5 seconds 967 msec
