                         Program Version 3.0.3 - RELEASE   -
|  1> ! RI PBE def2-SVP def2-SVP/J NBO PAL2
|  2> % maxcore 2000
|  3> % output
|  4>     # printlevel mini
|  5>     print[ P_Basis ] 0
|  6>     print[ P_SCFInfo ] 1
|  7>     print[ P_SCFIterInfo ] 1
|  8>     print[ P_OrbEn ] 0
|  9>     print[ P_Cartesian ] 0
| 10> end
| 11> *xyz 0 1
| 12>  O        1.0367620000    -0.0717910000     0.6455120000
| 13>  C        2.3423230000    -0.0362830000     0.1091500000
| 14>  C        2.5495670000     1.1424260000    -0.8281100000
| 15>  N        3.8899290000     1.0613010000    -1.3652370000
| 16>  N        4.2386090000    -0.0832950000    -2.0148260000
| 17>  C        3.6371230000    -1.1616650000    -1.7044680000
| 18>  C        2.5545670000    -1.3136230000    -0.6769540000
| 19>  H        0.9291860000     0.6718810000     1.2442720000
| 20>  H        3.0904080000     0.0302000000     0.9102740000
| 21>  H        2.4462230000     2.0907030000    -0.2928440000
| 22>  H        1.7787240000     1.1005370000    -1.6139860000
| 23>  H        4.1772200000     1.8578580000    -1.9103590000
| 24>  H        3.9764300000    -2.0505850000    -2.2289950000
| 25>  H        2.7922010000    -2.1453470000    -0.0067040000
| 26>  H        1.6108370000    -1.5799170000    -1.1678250000
| 27> *
| 28>
| 29>                          ****END OF INPUT****
 Total Charge           Charge          ....    0
 Multiplicity           Mult            ....    1
 Number of Electrons    NEL             ....   54
 Basis Dimension        Dim             ....  138

MULLIKEN ATOMIC CHARGES
-----------------------
   0 O :   -0.246983
   1 C :    0.025055
   2 C :    0.112424
   3 N :   -0.126089
   4 N :   -0.084653
   5 C :   -0.107871
   6 C :    0.074841
   7 H :    0.152501
   8 H :    0.007754
   9 H :   -0.003823
  10 H :    0.010576
  11 H :    0.116460
  12 H :    0.007160
  13 H :    0.028726
  14 H :    0.033921
Sum of atomic charges:   -0.0000000

LOEWDIN ATOMIC CHARGES
----------------------
   0 O :   -0.106884
   1 C :    0.037145
   2 C :   -0.012661
   3 N :   -0.010738
   4 N :   -0.050551
   5 C :   -0.065468
   6 C :   -0.065999
   7 H :    0.069305
   8 H :    0.011563
   9 H :    0.019487
  10 H :    0.012738
  11 H :    0.062343
  12 H :    0.018303
  13 H :    0.039747
  14 H :    0.041669

  Mayer bond orders larger than 0.1
B(  0-O ,  1-C ) :   1.1072 B(  0-O ,  7-H ) :   0.9785 B(  1-C ,  2-C ) :   1.0396
B(  1-C ,  6-C ) :   1.0493 B(  1-C ,  8-H ) :   0.9202 B(  2-C ,  3-N ) :   1.0159
B(  2-C ,  9-H ) :   0.9236 B(  2-C , 10-H ) :   0.9143 B(  3-N ,  4-N ) :   1.0950
B(  3-N ,  5-C ) :   0.1176 B(  3-N , 11-H ) :   0.9400 B(  4-N ,  5-C ) :   1.9146
B(  5-C ,  6-C ) :   0.9962 B(  5-C , 12-H ) :   0.9624 B(  6-C , 13-H ) :   0.9143
B(  6-C , 14-H ) :   0.9048

FINAL SINGLE POINT ENERGY      -341.258437236973

DIPOLE MOMENT
-------------
                                X             Y             Z
Electronic contribution:      1.46369       0.37948      -0.75988
Nuclear contribution   :     -1.82781       0.27599       1.20770
                        -----------------------------------------
Total Dipole Moment    :     -0.36412       0.65548       0.44782
                        -----------------------------------------
Magnitude (a.u.)       :      0.87337
Magnitude (Debye)      :      2.21993

                             ****ORCA TERMINATED NORMALLY****
TOTAL RUN TIME: 0 days 0 hours 0 minutes 7 seconds 373 msec
