                         Program Version 3.0.3 - RELEASE   -
|  1> ! RI PBE def2-SVP def2-SVP/J NBO PAL2
|  2> % maxcore 2000
|  3> % output
|  4>     # printlevel mini
|  5>     print[ P_Basis ] 0
|  6>     print[ P_SCFInfo ] 1
|  7>     print[ P_SCFIterInfo ] 1
|  8>     print[ P_OrbEn ] 0
|  9>     print[ P_Cartesian ] 0
| 10> end
| 11> *xyz 0 1
| 12>  O        1.5496320000     0.1279060000     1.0522480000
| 13>  C        2.5023440000     0.1077710000     0.2998770000
| 14>  C        3.1754080000    -1.2022820000    -0.0656870000
| 15>  O        4.0525240000    -1.1444040000    -1.1639190000
| 16>  C        4.9233560000    -0.0467940000    -1.0569300000
| 17>  C        4.1456410000     1.2436070000    -1.1739580000
| 18>  N        3.0551580000     1.2267720000    -0.2237370000
| 19>  H        2.3907360000    -1.9203430000    -0.3033420000
| 20>  H        3.6949150000    -1.5583730000     0.8370600000
| 21>  H        5.6490850000    -0.1286120000    -1.8673560000
| 22>  H        5.4644920000    -0.0781080000    -0.0989350000
| 23>  H        3.7709790000     1.3532290000    -2.1989220000
| 24>  H        4.8023600000     2.0927470000    -0.9618920000
| 25>  H        2.5664610000     2.0823740000    -0.0096980000
| 26> *
| 27>
| 28>                          ****END OF INPUT****
 Total Charge           Charge          ....    0
 Multiplicity           Mult            ....    1
 Number of Electrons    NEL             ....   54
 Basis Dimension        Dim             ....  133

MULLIKEN ATOMIC CHARGES
-----------------------
   0 O :   -0.216003
   1 C :   -0.021225
   2 C :    0.186138
   3 O :   -0.332753
   4 C :    0.128969
   5 C :    0.130870
   6 N :   -0.153478
   7 H :    0.046063
   8 H :    0.027213
   9 H :    0.033796
  10 H :    0.005363
  11 H :    0.027579
  12 H :    0.020635
  13 H :    0.116832
Sum of atomic charges:   -0.0000000

LOEWDIN ATOMIC CHARGES
----------------------
   0 O :   -0.193837
   1 C :    0.004368
   2 C :    0.030685
   3 O :   -0.140820
   4 C :    0.053444
   5 C :    0.011794
   6 N :   -0.001453
   7 H :    0.042159
   8 H :    0.027181
   9 H :    0.030641
  10 H :    0.009658
  11 H :    0.022159
  12 H :    0.028537
  13 H :    0.075483

  Mayer bond orders larger than 0.1
B(  0-O ,  1-C ) :   2.0777 B(  1-C ,  2-C ) :   0.9470 B(  1-C ,  6-N ) :   1.2196
B(  2-C ,  3-O ) :   1.0106 B(  2-C ,  7-H ) :   0.9308 B(  2-C ,  8-H ) :   0.9139
B(  3-O ,  4-C ) :   1.0159 B(  4-C ,  5-C ) :   1.0968 B(  4-C ,  9-H ) :   0.9440
B(  4-C , 10-H ) :   0.9166 B(  5-C ,  6-N ) :   0.9875 B(  5-C , 11-H ) :   0.9231
B(  5-C , 12-H ) :   0.9294 B(  6-N , 13-H ) :   0.9181

FINAL SINGLE POINT ENERGY      -361.149344932226

DIPOLE MOMENT
-------------
                                X             Y             Z
Electronic contribution:     -3.54676      -0.73633       1.53005
Nuclear contribution   :      4.60746       1.45905      -2.13099
                        -----------------------------------------
Total Dipole Moment    :      1.06070       0.72271      -0.60094
                        -----------------------------------------
Magnitude (a.u.)       :      1.41723
Magnitude (Debye)      :      3.60231

                             ****ORCA TERMINATED NORMALLY****
TOTAL RUN TIME: 0 days 0 hours 0 minutes 6 seconds 545 msec
