                         Program Version 3.0.3 - RELEASE   -
|  1> ! RI PBE def2-SVP def2-SVP/J NBO PAL2
|  2> % maxcore 2000
|  3> % output
|  4>     # printlevel mini
|  5>     print[ P_Basis ] 0
|  6>     print[ P_SCFInfo ] 1
|  7>     print[ P_SCFIterInfo ] 1
|  8>     print[ P_OrbEn ] 0
|  9>     print[ P_Cartesian ] 0
| 10> end
| 11> *xyz 0 1
| 12>  O        0.9356570000     0.0454420000     0.0037740000
| 13>  C        2.1461710000     0.0124360000     0.0086230000
| 14>  C        2.9343600000     1.3110400000    -0.0028700000
| 15>  O        4.3539790000     1.2419330000     0.0032830000
| 16>  C        4.9370030000     0.0242720000     0.0189060000
| 17>  C        4.2712100000    -1.1238720000     0.0291250000
| 18>  N        2.8710450000    -1.1277830000     0.0239690000
| 19>  H        2.6096770000     1.8835700000     0.8713170000
| 20>  H        2.6163470000     1.8639140000    -0.8920360000
| 21>  H        6.0158500000     0.0783050000     0.0223260000
| 22>  H        4.7720220000    -2.0787700000     0.0415450000
| 23>  H        2.3542800000    -1.9918960000     0.0316380000
| 24> *
| 25>
| 26>                          ****END OF INPUT****
 Total Charge           Charge          ....    0
 Multiplicity           Mult            ....    1
 Number of Electrons    NEL             ....   52
 Basis Dimension        Dim             ....  123

MULLIKEN ATOMIC CHARGES
-----------------------
   0 O :   -0.197986
   1 C :   -0.016295
   2 C :    0.177060
   3 O :   -0.265924
   4 C :    0.087337
   5 C :    0.016541
   6 N :   -0.060187
   7 H :    0.051553
   8 H :    0.051147
   9 H :    0.024749
  10 H :    0.010243
  11 H :    0.121762
Sum of atomic charges:   -0.0000000

LOEWDIN ATOMIC CHARGES
----------------------
   0 O :   -0.173062
   1 C :    0.013814
   2 C :    0.046721
   3 O :   -0.076658
   4 C :    0.002040
   5 C :   -0.076765
   6 N :    0.037679
   7 H :    0.038783
   8 H :    0.038703
   9 H :    0.031208
  10 H :    0.032388
  11 H :    0.085148

  Mayer bond orders larger than 0.1
B(  0-O ,  1-C ) :   2.0900 B(  1-C ,  2-C ) :   0.9612 B(  1-C ,  6-N ) :   1.2006
B(  2-C ,  3-O ) :   0.9650 B(  2-C ,  7-H ) :   0.9299 B(  2-C ,  8-H ) :   0.9299
B(  3-O ,  4-C ) :   1.1330 B(  4-C ,  5-C ) :   1.7470 B(  4-C ,  9-H ) :   0.9736
B(  5-C ,  6-N ) :   1.0348 B(  5-C , 10-H ) :   0.9543 B(  6-N , 11-H ) :   0.9149

FINAL SINGLE POINT ENERGY      -359.939231849264

DIPOLE MOMENT
-------------
                                X             Y             Z
Electronic contribution:     -1.50141      -0.04323      -0.00445
Nuclear contribution   :      2.30388      -0.56231       0.01460
                        -----------------------------------------
Total Dipole Moment    :      0.80247      -0.60554       0.01015
                        -----------------------------------------
Magnitude (a.u.)       :      1.00535
Magnitude (Debye)      :      2.55540

                             ****ORCA TERMINATED NORMALLY****
TOTAL RUN TIME: 0 days 0 hours 0 minutes 5 seconds 665 msec
