                         Program Version 3.0.3 - RELEASE   -
|  1> ! RI PBE def2-SVP def2-SVP/J NBO PAL2
|  2> % maxcore 2000
|  3> % output
|  4>     # printlevel mini
|  5>     print[ P_Basis ] 0
|  6>     print[ P_SCFInfo ] 1
|  7>     print[ P_SCFIterInfo ] 1
|  8>     print[ P_OrbEn ] 0
|  9>     print[ P_Cartesian ] 0
| 10> end
| 11> *xyz 0 1
| 12>  O        0.8661930000     0.1214320000    -0.1230810000
| 13>  C        2.0665460000     0.0478050000    -0.1070640000
| 14>  C        2.8938500000     1.3045070000    -0.0962810000
| 15>  O        4.3176320000     1.1972940000    -0.0768840000
| 16>  N        4.9476910000    -0.0096330000    -0.0690690000
| 17>  C        4.2817400000    -1.0889050000    -0.0782790000
| 18>  C        2.8015860000    -1.2569470000    -0.0977350000
| 19>  H        2.5950380000     1.8859170000     0.7822100000
| 20>  H        2.6189440000     1.8852990000    -0.9829700000
| 21>  H        4.9070040000    -1.9772100000    -0.0704350000
| 22>  H        2.4624160000    -1.8358580000     0.7690920000
| 23>  H        2.4852600000    -1.8355010000    -0.9733930000
| 24> *
| 25>
| 26>                          ****END OF INPUT****
 Total Charge           Charge          ....    0
 Multiplicity           Mult            ....    1
 Number of Electrons    NEL             ....   52
 Basis Dimension        Dim             ....  123

MULLIKEN ATOMIC CHARGES
-----------------------
   0 O :   -0.154489
   1 C :   -0.136745
   2 C :    0.228674
   3 O :   -0.269025
   4 N :    0.052505
   5 C :   -0.140401
   6 C :    0.112896
   7 H :    0.065181
   8 H :    0.065121
   9 H :    0.031108
  10 H :    0.072586
  11 H :    0.072590
Sum of atomic charges:   -0.0000000

LOEWDIN ATOMIC CHARGES
----------------------
   0 O :   -0.104699
   1 C :    0.044507
   2 C :    0.022126
   3 O :   -0.084246
   4 N :    0.011434
   5 C :   -0.069793
   6 C :   -0.087814
   7 H :    0.051336
   8 H :    0.051325
   9 H :    0.032794
  10 H :    0.066511
  11 H :    0.066519

  Mayer bond orders larger than 0.1
B(  0-O ,  1-C ) :   2.1569 B(  1-C ,  2-C ) :   0.9897 B(  1-C ,  6-C ) :   0.9761
B(  2-C ,  3-O ) :   0.9338 B(  2-C ,  7-H ) :   0.9162 B(  2-C ,  8-H ) :   0.9162
B(  3-O ,  4-N ) :   0.9885 B(  3-O ,  5-C ) :   0.1395 B(  4-N ,  5-C ) :   1.9549
B(  5-C ,  6-C ) :   0.9601 B(  5-C ,  9-H ) :   0.9497 B(  6-C , 10-H ) :   0.8938
B(  6-C , 11-H ) :   0.8939

FINAL SINGLE POINT ENERGY      -359.872431223317

DIPOLE MOMENT
-------------
                                X             Y             Z
Electronic contribution:      0.39055       1.55223       0.00694
Nuclear contribution   :     -0.64365      -2.08226      -0.01053
                        -----------------------------------------
Total Dipole Moment    :     -0.25310      -0.53002      -0.00359
                        -----------------------------------------
Magnitude (a.u.)       :      0.58736
Magnitude (Debye)      :      1.49296

                             ****ORCA TERMINATED NORMALLY****
TOTAL RUN TIME: 0 days 0 hours 0 minutes 5 seconds 505 msec
