                         Program Version 3.0.3 - RELEASE   -
|  1> ! RI PBE def2-SVP def2-SVP/J NBO PAL2
|  2> % maxcore 2000
|  3> % output
|  4>     # printlevel mini
|  5>     print[ P_Basis ] 0
|  6>     print[ P_SCFInfo ] 1
|  7>     print[ P_SCFIterInfo ] 1
|  8>     print[ P_OrbEn ] 0
|  9>     print[ P_Cartesian ] 0
| 10> end
| 11> *xyz 0 1
| 12>  O        1.1511840000     0.0089920000     0.7192720000
| 13>  C        2.4684520000    -0.0052770000     0.2155590000
| 14>  C        2.7322090000     1.1546660000    -0.7236400000
| 15>  O        4.0544950000     1.1173070000    -1.2339480000
| 16>  N        4.4393850000    -0.0626760000    -1.8297350000
| 17>  C        3.7850410000    -1.1160030000    -1.5530330000
| 18>  C        2.6538780000    -1.2699810000    -0.5872690000
| 19>  H        1.0580460000     0.7491940000     1.3249680000
| 20>  H        3.2031490000     0.0294460000     1.0311970000
| 21>  H        2.6502900000     2.1199150000    -0.2189560000
| 22>  H        2.0102030000     1.1228630000    -1.5508620000
| 23>  H        4.1518470000    -1.9975470000    -2.0720160000
| 24>  H        2.8419730000    -2.1333640000     0.0569380000
| 25>  H        1.7251600000    -1.4836350000    -1.1288850000
| 26> *
| 27>
| 28>                          ****END OF INPUT****
 Total Charge           Charge          ....    0
 Multiplicity           Mult            ....    1
 Number of Electrons    NEL             ....   54
 Basis Dimension        Dim             ....  133

MULLIKEN ATOMIC CHARGES
-----------------------
   0 O :   -0.247547
   1 C :    0.000245
   2 C :    0.183716
   3 O :   -0.265567
   4 N :    0.042786
   5 C :   -0.120073
   6 C :    0.088805
   7 H :    0.156422
   8 H :    0.016929
   9 H :    0.015126
  10 H :    0.020681
  11 H :    0.026186
  12 H :    0.037822
  13 H :    0.044470
Sum of atomic charges:   -0.0000000

LOEWDIN ATOMIC CHARGES
----------------------
   0 O :   -0.103740
   1 C :    0.024058
   2 C :    0.031693
   3 O :   -0.085164
   4 N :    0.000939
   5 C :   -0.056492
   6 C :   -0.061504
   7 H :    0.072660
   8 H :    0.014066
   9 H :    0.023562
  10 H :    0.017168
  11 H :    0.030921
  12 H :    0.044585
  13 H :    0.047251

  Mayer bond orders larger than 0.1
B(  0-O ,  1-C ) :   1.0997 B(  0-O ,  7-H ) :   0.9776 B(  1-C ,  2-C ) :   1.0346
B(  1-C ,  6-C ) :   1.0425 B(  1-C ,  8-H ) :   0.9195 B(  2-C ,  3-O ) :   0.9684
B(  2-C ,  9-H ) :   0.9360 B(  2-C , 10-H ) :   0.9253 B(  3-O ,  4-N ) :   0.9696
B(  3-O ,  5-C ) :   0.1146 B(  4-N ,  5-C ) :   1.9466 B(  5-C ,  6-C ) :   0.9860
B(  5-C , 11-H ) :   0.9543 B(  6-C , 12-H ) :   0.9132 B(  6-C , 13-H ) :   0.9025

FINAL SINGLE POINT ENERGY      -361.071016841498

DIPOLE MOMENT
-------------
                                X             Y             Z
Electronic contribution:      2.41146       1.40159      -1.27790
Nuclear contribution   :     -3.13835      -1.52293       2.03973
                        -----------------------------------------
Total Dipole Moment    :     -0.72689      -0.12135       0.76183
                        -----------------------------------------
Magnitude (a.u.)       :      1.05994
Magnitude (Debye)      :      2.69416

                             ****ORCA TERMINATED NORMALLY****
TOTAL RUN TIME: 0 days 0 hours 0 minutes 6 seconds 446 msec
