                         Program Version 3.0.3 - RELEASE   -
|  1> ! RI PBE def2-SVP def2-SVP/J NBO PAL2
|  2> % maxcore 2000
|  3> % output
|  4>     # printlevel mini
|  5>     print[ P_Basis ] 0
|  6>     print[ P_SCFInfo ] 1
|  7>     print[ P_SCFIterInfo ] 1
|  8>     print[ P_OrbEn ] 0
|  9>     print[ P_Cartesian ] 0
| 10> end
| 11> *xyz 0 1
| 12>  O        1.1980770000    -0.1119580000     0.1031790000
| 13>  C        2.4010270000    -0.0489320000     0.0763930000
| 14>  N        3.3233520000    -1.0546700000     0.1126050000
| 15>  C        4.6205900000    -0.3746520000     0.0506500000
| 16>  C        4.3573840000     0.6620390000    -1.0618260000
| 17>  C        3.3311410000     1.1703980000    -0.0073800000
| 18>  C        4.3986820000     0.7760050000     1.0548140000
| 19>  H        3.1439620000    -2.0396070000     0.1689200000
| 20>  H        5.4765490000    -1.0455010000     0.0700730000
| 21>  H        3.9758220000     0.2873740000    -2.0128310000
| 22>  H        5.1817200000     1.3611580000    -1.2102670000
| 23>  H        2.8438010000     2.1398720000    -0.0500700000
| 24>  H        4.0551900000     0.5063780000     2.0546580000
| 25>  H        5.2267040000     1.4852860000     1.0951730000
| 26> *
| 27>
| 28>                          ****END OF INPUT****
 Total Charge           Charge          ....    0
 Multiplicity           Mult            ....    1
 Number of Electrons    NEL             ....   52
 Basis Dimension        Dim             ....  133

MULLIKEN ATOMIC CHARGES
-----------------------
   0 O :   -0.162683
   1 C :    0.115529
   2 N :   -0.132192
   3 C :   -0.045947
   4 C :    0.105764
   5 C :   -0.190328
   6 C :    0.096605
   7 H :    0.106100
   8 H :    0.001796
   9 H :    0.023959
  10 H :    0.027178
  11 H :   -0.001644
  12 H :    0.026891
  13 H :    0.028973
Sum of atomic charges:   -0.0000000

LOEWDIN ATOMIC CHARGES
----------------------
   0 O :   -0.170316
   1 C :    0.028981
   2 N :   -0.010400
   3 C :    0.040219
   4 C :   -0.016073
   5 C :   -0.045945
   6 C :   -0.017472
   7 H :    0.070698
   8 H :    0.012840
   9 H :    0.018993
  10 H :    0.024694
  11 H :    0.019213
  12 H :    0.019518
  13 H :    0.025049

  Mayer bond orders larger than 0.1
B(  0-O ,  1-C ) :   2.2075 B(  1-C ,  2-N ) :   1.1363 B(  1-C ,  5-C ) :   0.8706
B(  2-N ,  3-C ) :   0.9571 B(  2-N ,  7-H ) :   0.9497 B(  3-C ,  4-C ) :   0.9805
B(  3-C ,  6-C ) :   0.9809 B(  3-C ,  8-H ) :   0.9597 B(  4-C ,  5-C ) :   0.9497
B(  4-C ,  9-H ) :   0.9302 B(  4-C , 10-H ) :   0.9418 B(  5-C ,  6-C ) :   0.9494
B(  5-C , 11-H ) :   0.9561 B(  6-C , 12-H ) :   0.9309 B(  6-C , 13-H ) :   0.9424

FINAL SINGLE POINT ENERGY      -324.055283440343

DIPOLE MOMENT
-------------
                                X             Y             Z
Electronic contribution:     -4.56255      -1.91587       0.19268
Nuclear contribution   :      6.02038       1.68013      -0.20799
                        -----------------------------------------
Total Dipole Moment    :      1.45784      -0.23574      -0.01531
                        -----------------------------------------
Magnitude (a.u.)       :      1.47685
Magnitude (Debye)      :      3.75386

                             ****ORCA TERMINATED NORMALLY****
TOTAL RUN TIME: 0 days 0 hours 0 minutes 7 seconds 172 msec
