                         Program Version 3.0.3 - RELEASE   -
|  1> ! RI PBE def2-SVP def2-SVP/J NBO PAL2
|  2> % maxcore 2000
|  3> % output
|  4>     # printlevel mini
|  5>     print[ P_Basis ] 0
|  6>     print[ P_SCFInfo ] 1
|  7>     print[ P_SCFIterInfo ] 1
|  8>     print[ P_OrbEn ] 0
|  9>     print[ P_Cartesian ] 0
| 10> end
| 11> *xyz 0 1
| 12>  O        1.7690750000     0.1333810000     1.3241280000
| 13>  C        2.4435110000     0.1007300000     0.3232950000
| 14>  N        2.8831520000    -1.0288070000    -0.3423640000
| 15>  C        3.8999000000    -0.7092410000    -1.2878030000
| 16>  C        5.1256890000     0.0226630000    -0.8051510000
| 17>  C        3.9320510000     0.7884800000    -1.3149990000
| 18>  N        2.9306840000     1.1854670000    -0.3825710000
| 19>  H        2.8736680000    -1.8951640000     0.1678930000
| 20>  H        3.9344570000    -1.2979040000    -2.1956430000
| 21>  H        5.9964490000    -0.0077130000    -1.4486390000
| 22>  H        5.3283700000     0.0376410000     0.2593260000
| 23>  H        3.9911220000     1.3417870000    -2.2435750000
| 24>  H        2.9587720000     2.0693790000     0.0959030000
| 25> *
| 26>
| 27>                          ****END OF INPUT****
 Total Charge           Charge          ....    0
 Multiplicity           Mult            ....    1
 Number of Electrons    NEL             ....   52
 Basis Dimension        Dim             ....  128

MULLIKEN ATOMIC CHARGES
-----------------------
   0 O :   -0.198780
   1 C :    0.093516
   2 N :   -0.136645
   3 C :   -0.020849
   4 C :    0.042878
   5 C :   -0.020646
   6 N :   -0.137628
   7 H :    0.125550
   8 H :    0.030211
   9 H :    0.035133
  10 H :    0.031616
  11 H :    0.029803
  12 H :    0.125842
Sum of atomic charges:   -0.0000000

LOEWDIN ATOMIC CHARGES
----------------------
   0 O :   -0.202941
   1 C :    0.020477
   2 N :   -0.018538
   3 C :    0.009920
   4 C :   -0.068991
   5 C :    0.010108
   6 N :   -0.018700
   7 H :    0.077708
   8 H :    0.023607
   9 H :    0.034204
  10 H :    0.031858
  11 H :    0.023509
  12 H :    0.077780

  Mayer bond orders larger than 0.1
B(  0-O ,  1-C ) :   2.1461 B(  1-C ,  2-N ) :   1.0802 B(  1-C ,  6-N ) :   1.0804
B(  2-N ,  3-C ) :   1.0774 B(  2-N ,  7-H ) :   0.9382 B(  3-C ,  4-C ) :   0.9721
B(  3-C ,  5-C ) :   0.9356 B(  3-C ,  8-H ) :   0.9471 B(  4-C ,  5-C ) :   0.9726
B(  4-C ,  9-H ) :   0.9349 B(  4-C , 10-H ) :   0.9109 B(  5-C ,  6-N ) :   1.0776
B(  5-C , 11-H ) :   0.9474 B(  6-N , 12-H ) :   0.9379

FINAL SINGLE POINT ENERGY      -340.107611049626

DIPOLE MOMENT
-------------
                                X             Y             Z
Electronic contribution:     -3.96553       0.12701       2.29251
Nuclear contribution   :      5.14495      -0.16866      -3.20600
                        -----------------------------------------
Total Dipole Moment    :      1.17943      -0.04165      -0.91349
                        -----------------------------------------
Magnitude (a.u.)       :      1.49239
Magnitude (Debye)      :      3.79337

                             ****ORCA TERMINATED NORMALLY****
TOTAL RUN TIME: 0 days 0 hours 0 minutes 6 seconds 308 msec
