                         Program Version 3.0.3 - RELEASE   -
|  1> ! RI PBE def2-SVP def2-SVP/J NBO PAL2
|  2> % maxcore 2000
|  3> % output
|  4>     # printlevel mini
|  5>     print[ P_Basis ] 0
|  6>     print[ P_SCFInfo ] 1
|  7>     print[ P_SCFIterInfo ] 1
|  8>     print[ P_OrbEn ] 0
|  9>     print[ P_Cartesian ] 0
| 10> end
| 11> *xyz 0 1
| 12>  O        1.6739640000     0.2021560000     1.2012290000
| 13>  C        2.4320410000     0.0798400000     0.2866560000
| 14>  N        2.9419020000    -1.0766300000    -0.2467010000
| 15>  C        3.9530180000    -0.8190010000    -1.2107000000
| 16>  C        5.1312390000     0.0087960000    -0.7581540000
| 17>  C        3.9128280000     0.6690810000    -1.3191610000
| 18>  O        2.9488450000     1.1353880000    -0.4125000000
| 19>  H        2.8931940000    -1.9156960000     0.3042250000
| 20>  H        4.0127200000    -1.4781590000    -2.0670970000
| 21>  H        6.0096840000     0.0046220000    -1.3916710000
| 22>  H        5.3178150000     0.0947120000     0.3058160000
| 23>  H        3.9285500000     1.2187920000    -2.2494420000
| 24> *
| 25>
| 26>                          ****END OF INPUT****
 Total Charge           Charge          ....    0
 Multiplicity           Mult            ....    1
 Number of Electrons    NEL             ....   52
 Basis Dimension        Dim             ....  123

MULLIKEN ATOMIC CHARGES
-----------------------
   0 O :   -0.168003
   1 C :    0.169712
   2 N :   -0.144895
   3 C :   -0.020991
   4 C :    0.015749
   5 C :    0.073494
   6 O :   -0.230098
   7 H :    0.134464
   8 H :    0.036788
   9 H :    0.045838
  10 H :    0.046722
  11 H :    0.041221
Sum of atomic charges:    0.0000000

LOEWDIN ATOMIC CHARGES
----------------------
   0 O :   -0.160281
   1 C :    0.030817
   2 N :   -0.009431
   3 C :   -0.002828
   4 C :   -0.063275
   5 C :    0.055168
   6 O :   -0.065356
   7 H :    0.084524
   8 H :    0.025913
   9 H :    0.039557
  10 H :    0.038244
  11 H :    0.026946

  Mayer bond orders larger than 0.1
B(  0-O ,  1-C ) :   2.1731 B(  1-C ,  2-N ) :   1.1052 B(  1-C ,  6-O ) :   1.0554
B(  2-N ,  3-C ) :   1.0554 B(  2-N ,  7-H ) :   0.9396 B(  3-C ,  4-C ) :   0.9713
B(  3-C ,  5-C ) :   0.9361 B(  3-C ,  8-H ) :   0.9506 B(  4-C ,  5-C ) :   0.9786
B(  4-C ,  9-H ) :   0.9351 B(  4-C , 10-H ) :   0.9116 B(  5-C ,  6-O ) :   1.0308
B(  5-C , 11-H ) :   0.9547

FINAL SINGLE POINT ENERGY      -359.941649747930

DIPOLE MOMENT
-------------
                                X             Y             Z
Electronic contribution:     -4.22975       1.20355       2.21415
Nuclear contribution   :      5.47948      -2.10003      -3.24527
                        -----------------------------------------
Total Dipole Moment    :      1.24973      -0.89648      -1.03112
                        -----------------------------------------
Magnitude (a.u.)       :      1.85168
Magnitude (Debye)      :      4.70659

                             ****ORCA TERMINATED NORMALLY****
TOTAL RUN TIME: 0 days 0 hours 0 minutes 5 seconds 733 msec
