                         Program Version 3.0.3 - RELEASE   -
|  1> ! RI PBE def2-SVP def2-SVP/J NBO PAL2
|  2> % maxcore 2000
|  3> % output
|  4>     # printlevel mini
|  5>     print[ P_Basis ] 0
|  6>     print[ P_SCFInfo ] 1
|  7>     print[ P_SCFIterInfo ] 1
|  8>     print[ P_OrbEn ] 0
|  9>     print[ P_Cartesian ] 0
| 10> end
| 11> *xyz 0 1
| 12>  O        1.1119040000     0.0968370000     0.4782260000
| 13>  C        2.2484380000     0.0340430000     0.1188610000
| 14>  N        3.1546540000     0.9566160000    -0.3023980000
| 15>  C        4.2384980000     0.0233920000    -0.5655480000
| 16>  C        3.3062720000    -1.1029850000    -0.0408640000
| 17>  C        2.9838150000    -2.1825920000    -0.9375500000
| 18>  C        2.7077950000    -3.0732000000    -1.6932740000
| 19>  H        3.0709190000     1.9521520000    -0.4333190000
| 20>  H        5.1359260000     0.1914470000     0.0334790000
| 21>  H        4.4987130000    -0.0772050000    -1.6204210000
| 22>  H        3.6111710000    -1.4803770000     0.9384760000
| 23>  H        2.4562850000    -3.8647170000    -2.3588570000
| 24> *
| 25>
| 26>                          ****END OF INPUT****
 Total Charge           Charge          ....    0
 Multiplicity           Mult            ....    1
 Number of Electrons    NEL             ....   50
 Basis Dimension        Dim             ....  123

MULLIKEN ATOMIC CHARGES
-----------------------
   0 O :   -0.143330
   1 C :    0.154921
   2 N :   -0.209942
   3 C :    0.256529
   4 C :   -0.276593
   5 C :    0.463690
   6 C :   -0.477926
   7 H :    0.109822
   8 H :    0.026624
   9 H :    0.028407
  10 H :    0.065282
  11 H :    0.002516
Sum of atomic charges:   -0.0000000

LOEWDIN ATOMIC CHARGES
----------------------
   0 O :   -0.141271
   1 C :    0.033361
   2 N :   -0.002568
   3 C :    0.062436
   4 C :   -0.069141
   5 C :   -0.019705
   6 C :   -0.070026
   7 H :    0.066379
   8 H :    0.021124
   9 H :    0.024156
  10 H :    0.058701
  11 H :    0.036553

  Mayer bond orders larger than 0.1
B(  0-O ,  1-C ) :   2.2134 B(  0-O ,  2-N ) :   0.1148 B(  1-C ,  2-N ) :   1.1891
B(  1-C ,  4-C ) :   0.8401 B(  2-N ,  3-C ) :   1.0179 B(  2-N ,  7-H ) :   0.9382
B(  3-C ,  4-C ) :   1.0390 B(  3-C ,  8-H ) :   0.9277 B(  3-C ,  9-H ) :   0.9330
B(  4-C ,  5-C ) :   0.9863 B(  4-C , 10-H ) :   0.8536 B(  5-C ,  6-C ) :   2.2899
B(  5-C , 11-H ) :  -0.1122 B(  6-C , 11-H ) :   1.1028

FINAL SINGLE POINT ENERGY      -322.807849200939

DIPOLE MOMENT
-------------
                                X             Y             Z
Electronic contribution:     -3.13512       0.33730       1.01671
Nuclear contribution   :      4.42494       0.10324      -1.36445
                        -----------------------------------------
Total Dipole Moment    :      1.28981       0.44054      -0.34774
                        -----------------------------------------
Magnitude (a.u.)       :      1.40664
Magnitude (Debye)      :      3.57538

                             ****ORCA TERMINATED NORMALLY****
TOTAL RUN TIME: 0 days 0 hours 0 minutes 5 seconds 944 msec
