                         Program Version 3.0.3 - RELEASE   -
|  1> ! RI PBE def2-SVP def2-SVP/J NBO PAL2
|  2> % maxcore 2000
|  3> % output
|  4>     # printlevel mini
|  5>     print[ P_Basis ] 0
|  6>     print[ P_SCFInfo ] 1
|  7>     print[ P_SCFIterInfo ] 1
|  8>     print[ P_OrbEn ] 0
|  9>     print[ P_Cartesian ] 0
| 10> end
| 11> *xyz 0 1
| 12>  O        1.1206910000     0.1203220000     0.5127330000
| 13>  C        2.2468630000     0.0572880000     0.1306400000
| 14>  N        3.1648320000     0.9711720000    -0.2800320000
| 15>  C        4.2340760000     0.0290550000    -0.5715700000
| 16>  C        3.2878140000    -1.0940760000    -0.0735770000
| 17>  C        2.9395150000    -2.1232130000    -1.0220000000
| 18>  N        2.6697550000    -2.9340010000    -1.7914890000
| 19>  H        3.1021070000     1.9728090000    -0.3719170000
| 20>  H        5.1324560000     0.1613980000     0.0339840000
| 21>  H        4.4951220000    -0.0429600000    -1.6284520000
| 22>  H        3.5861900000    -1.5372920000     0.8780810000
| 23> *
| 24>
| 25>                          ****END OF INPUT****
 Total Charge           Charge          ....    0
 Multiplicity           Mult            ....    1
 Number of Electrons    NEL             ....   50
 Basis Dimension        Dim             ....  118

MULLIKEN ATOMIC CHARGES
-----------------------
   0 O :   -0.127619
   1 C :    0.165707
   2 N :   -0.205017
   3 C :    0.255438
   4 C :   -0.333109
   5 C :   -0.121803
   6 N :    0.084183
   7 H :    0.118696
   8 H :    0.038492
   9 H :    0.042142
  10 H :    0.082889
Sum of atomic charges:    0.0000000

LOEWDIN ATOMIC CHARGES
----------------------
   0 O :   -0.126730
   1 C :    0.035401
   2 N :    0.003532
   3 C :    0.069032
   4 C :   -0.084434
   5 C :   -0.040402
   6 N :   -0.051365
   7 H :    0.071992
   8 H :    0.026554
   9 H :    0.029550
  10 H :    0.066869

  Mayer bond orders larger than 0.1
B(  0-O ,  1-C ) :   2.2222 B(  0-O ,  2-N ) :   0.1185 B(  1-C ,  2-N ) :   1.1932
B(  1-C ,  4-C ) :   0.8401 B(  2-N ,  3-C ) :   1.0144 B(  2-N ,  7-H ) :   0.9389
B(  3-C ,  4-C ) :   1.0518 B(  3-C ,  8-H ) :   0.9297 B(  3-C ,  9-H ) :   0.9337
B(  4-C ,  5-C ) :   1.0968 B(  4-C , 10-H ) :   0.8502 B(  5-C ,  6-N ) :   3.0562

FINAL SINGLE POINT ENERGY      -338.884835690561

DIPOLE MOMENT
-------------
                                X             Y             Z
Electronic contribution:     -3.21842      -1.58298      -0.12711
Nuclear contribution   :      4.78819       2.97292       0.56241
                        -----------------------------------------
Total Dipole Moment    :      1.56977       1.38994       0.43530
                        -----------------------------------------
Magnitude (a.u.)       :      2.14140
Magnitude (Debye)      :      5.44300

                             ****ORCA TERMINATED NORMALLY****
TOTAL RUN TIME: 0 days 0 hours 0 minutes 5 seconds 869 msec
