                         Program Version 3.0.3 - RELEASE   -
|  1> ! RI PBE def2-SVP def2-SVP/J NBO PAL2
|  2> % maxcore 2000
|  3> % output
|  4>     # printlevel mini
|  5>     print[ P_Basis ] 0
|  6>     print[ P_SCFInfo ] 1
|  7>     print[ P_SCFIterInfo ] 1
|  8>     print[ P_OrbEn ] 0
|  9>     print[ P_Cartesian ] 0
| 10> end
| 11> *xyz 0 1
| 12>  O        1.5287300000     0.1410950000     0.8095340000
| 13>  C        2.5233160000    -0.0541620000     0.1500280000
| 14>  N        2.8198400000    -1.2006670000    -0.5295360000
| 15>  C        4.1611480000    -1.2800510000    -1.0571500000
| 16>  C        4.6792070000     0.1355930000    -0.8957670000
| 17>  C        3.8881280000     1.2159650000    -1.5463780000
| 18>  C        3.6555900000     0.8936770000    -0.0952660000
| 19>  H        2.1840150000    -1.9790800000    -0.5081000000
| 20>  H        4.1644320000    -1.6036830000    -2.1036260000
| 21>  H        4.7771570000    -1.9828280000    -0.4834540000
| 22>  H        5.7391990000     0.2785820000    -0.7347920000
| 23>  H        3.1158800000     0.9459710000    -2.2583190000
| 24>  H        4.3999450000     2.1462860000    -1.7580180000
| 25>  H        3.8904010000     1.6173030000     0.6720240000
| 26> *
| 27>
| 28>                          ****END OF INPUT****
 Total Charge           Charge          ....    0
 Multiplicity           Mult            ....    1
 Number of Electrons    NEL             ....   52
 Basis Dimension        Dim             ....  133

MULLIKEN ATOMIC CHARGES
-----------------------
   0 O :   -0.184666
   1 C :    0.134713
   2 N :   -0.203339
   3 C :    0.257222
   4 C :   -0.185149
   5 C :    0.029394
   6 C :   -0.144697
   7 H :    0.111122
   8 H :    0.019160
   9 H :    0.023021
  10 H :    0.032453
  11 H :    0.042538
  12 H :    0.037742
  13 H :    0.030486
Sum of atomic charges:    0.0000000

LOEWDIN ATOMIC CHARGES
----------------------
   0 O :   -0.183900
   1 C :    0.026115
   2 N :   -0.009311
   3 C :    0.040667
   4 C :   -0.041189
   5 C :   -0.021293
   6 C :   -0.054402
   7 H :    0.072168
   8 H :    0.022274
   9 H :    0.021773
  10 H :    0.029990
  11 H :    0.028674
  12 H :    0.033716
  13 H :    0.034718

  Mayer bond orders larger than 0.1
B(  0-O ,  1-C ) :   2.1561 B(  1-C ,  2-N ) :   1.1561 B(  1-C ,  6-C ) :   0.9356
B(  2-N ,  3-C ) :   1.0024 B(  2-N ,  7-H ) :   0.9289 B(  3-C ,  4-C ) :   1.0466
B(  3-C ,  8-H ) :   0.9256 B(  3-C ,  9-H ) :   0.9295 B(  4-C ,  5-C ) :   1.0006
B(  4-C ,  6-C ) :   0.9245 B(  4-C , 10-H ) :   0.9451 B(  5-C ,  6-C ) :   0.9652
B(  5-C , 11-H ) :   0.9420 B(  5-C , 12-H ) :   0.9400 B(  6-C , 13-H ) :   0.9655

FINAL SINGLE POINT ENERGY      -324.079464809636

DIPOLE MOMENT
-------------
                                X             Y             Z
Electronic contribution:     -3.75588      -0.26029       3.00434
Nuclear contribution   :      4.88603      -0.26137      -3.80025
                        -----------------------------------------
Total Dipole Moment    :      1.13014      -0.52166      -0.79591
                        -----------------------------------------
Magnitude (a.u.)       :      1.47744
Magnitude (Debye)      :      3.75536

                             ****ORCA TERMINATED NORMALLY****
TOTAL RUN TIME: 0 days 0 hours 0 minutes 6 seconds 639 msec
