                         Program Version 3.0.3 - RELEASE   -
|  1> ! RI PBE def2-SVP def2-SVP/J NBO PAL2
|  2> % maxcore 2000
|  3> % output
|  4>     # printlevel mini
|  5>     print[ P_Basis ] 0
|  6>     print[ P_SCFInfo ] 1
|  7>     print[ P_SCFIterInfo ] 1
|  8>     print[ P_OrbEn ] 0
|  9>     print[ P_Cartesian ] 0
| 10> end
| 11> *xyz 0 1
| 12>  O        1.6423720000     0.3580980000     0.9330500000
| 13>  C        2.5871430000     0.0086270000     0.2803370000
| 14>  N        2.7374720000    -1.1827580000    -0.3671950000
| 15>  C        3.9960420000    -1.3486890000    -1.0426010000
| 16>  C        4.5960050000     0.0336440000    -0.8779920000
| 17>  C        3.8372340000     1.1930690000    -1.3695380000
| 18>  N        3.7610290000     0.8032150000     0.0459770000
| 19>  H        2.0231780000    -1.8866180000    -0.3108670000
| 20>  H        3.8715320000    -1.6382940000    -2.0913420000
| 21>  H        4.6289850000    -2.0980720000    -0.5543740000
| 22>  H        5.6662800000     0.1117650000    -0.7299400000
| 23>  H        2.9597290000     1.0098050000    -1.9830160000
| 24>  H        4.3441970000     2.1334090000    -1.5503980000
| 25> *
| 26>
| 27>                          ****END OF INPUT****
 Total Charge           Charge          ....    0
 Multiplicity           Mult            ....    1
 Number of Electrons    NEL             ....   52
 Basis Dimension        Dim             ....  128

MULLIKEN ATOMIC CHARGES
-----------------------
   0 O :   -0.158517
   1 C :    0.114849
   2 N :   -0.212978
   3 C :    0.251825
   4 C :   -0.158955
   5 C :    0.096143
   6 N :   -0.241589
   7 H :    0.120679
   8 H :    0.027924
   9 H :    0.028616
  10 H :    0.042009
  11 H :    0.043378
  12 H :    0.046616
Sum of atomic charges:    0.0000000

LOEWDIN ATOMIC CHARGES
----------------------
   0 O :   -0.164378
   1 C :    0.018769
   2 N :   -0.014173
   3 C :    0.028538
   4 C :   -0.004142
   5 C :    0.030091
   6 N :   -0.101948
   7 H :    0.077559
   8 H :    0.025189
   9 H :    0.024310
  10 H :    0.028067
  11 H :    0.022759
  12 H :    0.029358

  Mayer bond orders larger than 0.1
B(  0-O ,  1-C ) :   2.1940 B(  1-C ,  2-N ) :   1.1340 B(  1-C ,  6-N ) :   0.9720
B(  2-N ,  3-C ) :   1.0085 B(  2-N ,  7-H ) :   0.9283 B(  3-C ,  4-C ) :   1.0228
B(  3-C ,  8-H ) :   0.9262 B(  3-C ,  9-H ) :   0.9309 B(  4-C ,  5-C ) :   1.0488
B(  4-C ,  6-N ) :   0.9368 B(  4-C , 10-H ) :   0.9442 B(  5-C ,  6-N ) :   0.9500
B(  5-C , 11-H ) :   0.9230 B(  5-C , 12-H ) :   0.9464

FINAL SINGLE POINT ENERGY      -340.088513714066

DIPOLE MOMENT
-------------
                                X             Y             Z
Electronic contribution:     -2.76367       0.98501       3.53676
Nuclear contribution   :      3.57889      -2.02614      -4.85941
                        -----------------------------------------
Total Dipole Moment    :      0.81521      -1.04113      -1.32265
                        -----------------------------------------
Magnitude (a.u.)       :      1.87027
Magnitude (Debye)      :      4.75386

                             ****ORCA TERMINATED NORMALLY****
TOTAL RUN TIME: 0 days 0 hours 0 minutes 5 seconds 855 msec
