                         Program Version 3.0.3 - RELEASE   -
|  1> ! RI PBE def2-SVP def2-SVP/J NBO PAL2
|  2> % maxcore 2000
|  3> % output
|  4>     # printlevel mini
|  5>     print[ P_Basis ] 0
|  6>     print[ P_SCFInfo ] 1
|  7>     print[ P_SCFIterInfo ] 1
|  8>     print[ P_OrbEn ] 0
|  9>     print[ P_Cartesian ] 0
| 10> end
| 11> *xyz 0 1
| 12>  O        1.5290690000     0.2158920000     0.9052920000
| 13>  C        2.4972620000     0.0222030000     0.2093570000
| 14>  N        2.8092120000    -1.1430200000    -0.4332140000
| 15>  C        4.1325480000    -1.1887470000    -1.0074590000
| 16>  C        4.5851750000     0.2542810000    -0.9343610000
| 17>  N        3.7552370000     1.2493570000    -1.5737540000
| 18>  C        3.5799300000     1.0030070000    -0.1430230000
| 19>  H        2.1947590000    -1.9369290000    -0.3781370000
| 20>  H        4.1181740000    -1.5639470000    -2.0369090000
| 21>  H        4.8076410000    -1.8256080000    -0.4241830000
| 22>  H        5.6458340000     0.4699080000    -0.8969720000
| 23>  H        3.0029080000     0.8220380000    -2.1073160000
| 24>  H        3.7848620000     1.8241460000     0.5306910000
| 25> *
| 26>
| 27>                          ****END OF INPUT****
 Total Charge           Charge          ....    0
 Multiplicity           Mult            ....    1
 Number of Electrons    NEL             ....   52
 Basis Dimension        Dim             ....  128

MULLIKEN ATOMIC CHARGES
-----------------------
   0 O :   -0.175199
   1 C :    0.135000
   2 N :   -0.204995
   3 C :    0.241496
   4 C :   -0.121971
   5 N :   -0.117804
   6 C :   -0.110722
   7 H :    0.114884
   8 H :    0.028053
   9 H :    0.031769
  10 H :    0.039034
  11 H :    0.108937
  12 H :    0.031518
Sum of atomic charges:    0.0000000

LOEWDIN ATOMIC CHARGES
----------------------
   0 O :   -0.173804
   1 C :    0.007558
   2 N :   -0.010730
   3 C :    0.026070
   4 C :   -0.005437
   5 N :   -0.063024
   6 C :   -0.016100
   7 H :    0.073849
   8 H :    0.025732
   9 H :    0.026987
  10 H :    0.026767
  11 H :    0.052469
  12 H :    0.029665

  Mayer bond orders larger than 0.1
B(  0-O ,  1-C ) :   2.1552 B(  1-C ,  2-N ) :   1.1486 B(  1-C ,  6-C ) :   0.8999
B(  2-N ,  3-C ) :   1.0036 B(  2-N ,  7-H ) :   0.9260 B(  3-C ,  4-C ) :   1.0124
B(  3-C ,  8-H ) :   0.9195 B(  3-C ,  9-H ) :   0.9235 B(  4-C ,  5-N ) :   1.0138
B(  4-C ,  6-C ) :   0.9613 B(  4-C , 10-H ) :   0.9422 B(  5-N ,  6-C ) :   0.9850
B(  5-N , 11-H ) :   0.9428 B(  6-C , 12-H ) :   0.9667

FINAL SINGLE POINT ENERGY      -340.088703515779

DIPOLE MOMENT
-------------
                                X             Y             Z
Electronic contribution:     -3.00001       1.18201       1.94945
Nuclear contribution   :      3.83522      -2.28930      -2.58938
                        -----------------------------------------
Total Dipole Moment    :      0.83521      -1.10730      -0.63993
                        -----------------------------------------
Magnitude (a.u.)       :      1.52748
Magnitude (Debye)      :      3.88254

                             ****ORCA TERMINATED NORMALLY****
TOTAL RUN TIME: 0 days 0 hours 0 minutes 5 seconds 868 msec
