                         Program Version 3.0.3 - RELEASE   -
|  1> ! RI PBE def2-SVP def2-SVP/J NBO PAL2
|  2> % maxcore 2000
|  3> % output
|  4>     # printlevel mini
|  5>     print[ P_Basis ] 0
|  6>     print[ P_SCFInfo ] 1
|  7>     print[ P_SCFIterInfo ] 1
|  8>     print[ P_OrbEn ] 0
|  9>     print[ P_Cartesian ] 0
| 10> end
| 11> *xyz 0 1
| 12>  O        1.3770460000     0.0860480000     0.8154520000
| 13>  C        2.3487550000    -0.1248760000     0.1306770000
| 14>  N        2.7307030000    -1.3193420000    -0.4002460000
| 15>  C        3.9933740000    -1.3209780000    -1.1020080000
| 16>  C        4.3889130000     0.1363670000    -1.0820430000
| 17>  O        3.4527620000     0.9718090000    -1.7317850000
| 18>  C        3.3925260000     0.8727000000    -0.3100210000
| 19>  H        2.1170030000    -2.1148760000    -0.3591770000
| 20>  H        3.8941090000    -1.6894490000    -2.1281190000
| 21>  H        4.7446970000    -1.9277490000    -0.5842990000
| 22>  H        5.4301990000     0.4294650000    -1.1543930000
| 23>  H        3.5667920000     1.7785800000     0.2570810000
| 24> *
| 25>
| 26>                          ****END OF INPUT****
 Total Charge           Charge          ....    0
 Multiplicity           Mult            ....    1
 Number of Electrons    NEL             ....   52
 Basis Dimension        Dim             ....  123

MULLIKEN ATOMIC CHARGES
-----------------------
   0 O :   -0.176626
   1 C :    0.148498
   2 N :   -0.201309
   3 C :    0.241120
   4 C :   -0.008441
   5 O :   -0.263341
   6 C :    0.013740
   7 H :    0.116892
   8 H :    0.036003
   9 H :    0.031059
  10 H :    0.034489
  11 H :    0.027917
Sum of atomic charges:    0.0000000

LOEWDIN ATOMIC CHARGES
----------------------
   0 O :   -0.170690
   1 C :    0.010157
   2 N :    0.002032
   3 C :    0.026814
   4 C :    0.042498
   5 O :   -0.129544
   6 C :    0.035111
   7 H :    0.075407
   8 H :    0.032618
   9 H :    0.027075
  10 H :    0.022581
  11 H :    0.025941

  Mayer bond orders larger than 0.1
B(  0-O ,  1-C ) :   2.1534 B(  0-O ,  2-N ) :   0.1067 B(  1-C ,  2-N ) :   1.1735
B(  1-C ,  6-C ) :   0.8750 B(  2-N ,  3-C ) :   1.0049 B(  2-N ,  7-H ) :   0.9252
B(  3-C ,  4-C ) :   1.0014 B(  3-C ,  8-H ) :   0.9130 B(  3-C ,  9-H ) :   0.9269
B(  4-C ,  5-O ) :   0.9881 B(  4-C ,  6-C ) :   1.0226 B(  4-C , 10-H ) :   0.9489
B(  5-O ,  6-C ) :   0.9327 B(  6-C , 11-H ) :   0.9702

FINAL SINGLE POINT ENERGY      -359.926749719030

DIPOLE MOMENT
-------------
                                X             Y             Z
Electronic contribution:     -2.80985       1.90302       0.90288
Nuclear contribution   :      4.06802      -2.80396      -1.22800
                        -----------------------------------------
Total Dipole Moment    :      1.25816      -0.90095      -0.32512
                        -----------------------------------------
Magnitude (a.u.)       :      1.58126
Magnitude (Debye)      :      4.01924

                             ****ORCA TERMINATED NORMALLY****
TOTAL RUN TIME: 0 days 0 hours 0 minutes 6 seconds 108 msec
