                         Program Version 3.0.3 - RELEASE   -
|  1> ! RI PBE def2-SVP def2-SVP/J NBO PAL2
|  2> % maxcore 2000
|  3> % output
|  4>     # printlevel mini
|  5>     print[ P_Basis ] 0
|  6>     print[ P_SCFInfo ] 1
|  7>     print[ P_SCFIterInfo ] 1
|  8>     print[ P_OrbEn ] 0
|  9>     print[ P_Cartesian ] 0
| 10> end
| 11> *xyz 0 1
| 12>  O        1.1080550000    -0.1523340000     0.4436460000
| 13>  C        2.2475430000    -0.0924740000     0.0882670000
| 14>  N        3.0870970000    -1.1490030000    -0.2064630000
| 15>  C        4.3329700000    -0.6830730000    -0.5829690000
| 16>  C        4.4289750000     0.6600370000    -0.5729810000
| 17>  C        3.1370980000     1.1802370000    -0.1518830000
| 18>  O        2.7442610000     2.3037460000     0.0047630000
| 19>  H        2.8166690000    -2.1151480000    -0.1507230000
| 20>  H        5.1015400000    -1.3979100000    -0.8454160000
| 21>  H        5.2977820000     1.2443240000    -0.8280510000
| 22> *
| 23>
| 24>                          ****END OF INPUT****
 Total Charge           Charge          ....    0
 Multiplicity           Mult            ....    1
 Number of Electrons    NEL             ....   50
 Basis Dimension        Dim             ....  113

MULLIKEN ATOMIC CHARGES
-----------------------
   0 O :   -0.099734
   1 C :    0.087334
   2 N :   -0.117121
   3 C :    0.119863
   4 C :   -0.074950
   5 C :    0.030702
   6 O :   -0.104296
   7 H :    0.125682
   8 H :    0.028213
   9 H :    0.004307
Sum of atomic charges:   -0.0000000

LOEWDIN ATOMIC CHARGES
----------------------
   0 O :   -0.089053
   1 C :    0.023126
   2 N :    0.025144
   3 C :    0.074349
   4 C :   -0.122982
   5 C :    0.008978
   6 O :   -0.073639
   7 H :    0.084091
   8 H :    0.033517
   9 H :    0.036469

  Mayer bond orders larger than 0.1
B(  0-O ,  1-C ) :   2.2309 B(  1-C ,  2-N ) :   1.0745 B(  1-C ,  5-C ) :   0.7727
B(  2-N ,  3-C ) :   1.1321 B(  2-N ,  7-H ) :   0.9245 B(  3-C ,  4-C ) :   1.5796
B(  3-C ,  8-H ) :   0.9739 B(  4-C ,  5-C ) :   1.0744 B(  4-C ,  9-H ) :   1.0120
B(  5-C ,  6-O ) :   2.1563

FINAL SINGLE POINT ENERGY      -358.749563635329

DIPOLE MOMENT
-------------
                                X             Y             Z
Electronic contribution:     -2.72010       1.32379       0.88994
Nuclear contribution   :      4.01531      -2.94924      -1.34764
                        -----------------------------------------
Total Dipole Moment    :      1.29521      -1.62544      -0.45770
                        -----------------------------------------
Magnitude (a.u.)       :      2.12817
Magnitude (Debye)      :      5.40939

                             ****ORCA TERMINATED NORMALLY****
TOTAL RUN TIME: 0 days 0 hours 0 minutes 5 seconds 67 msec
