                         Program Version 3.0.3 - RELEASE   -
|  1> ! RI PBE def2-SVP def2-SVP/J NBO PAL2
|  2> % maxcore 2000
|  3> % output
|  4>     # printlevel mini
|  5>     print[ P_Basis ] 0
|  6>     print[ P_SCFInfo ] 1
|  7>     print[ P_SCFIterInfo ] 1
|  8>     print[ P_OrbEn ] 0
|  9>     print[ P_Cartesian ] 0
| 10> end
| 11> *xyz 0 1
| 12>  O        0.8859510000     0.0249740000     0.1984140000
| 13>  C        2.0925960000     0.0523440000     0.0449170000
| 14>  N        2.8244220000     1.1946760000     0.1923180000
| 15>  C        4.1785630000     1.3092850000    -0.3064020000
| 16>  C        4.9832770000     0.0805790000     0.0752760000
| 17>  C        4.2114940000    -1.1644930000    -0.2205700000
| 18>  C        2.8810930000    -1.1623830000    -0.2598130000
| 19>  H        2.2685020000     2.0306920000     0.2811400000
| 20>  H        4.6309370000     2.2087950000     0.1156960000
| 21>  H        4.1857910000     1.4191290000    -1.4005240000
| 22>  H        5.2314730000     0.1017560000     1.1448160000
| 23>  H        5.9340480000     0.0828690000    -0.4639520000
| 24>  H        4.7615190000    -2.0891930000    -0.3701680000
| 25>  H        2.2996230000    -2.0562320000    -0.4478480000
| 26> *
| 27>
| 28>                          ****END OF INPUT****
 Total Charge           Charge          ....    0
 Multiplicity           Mult            ....    1
 Number of Electrons    NEL             ....   52
 Basis Dimension        Dim             ....  133

MULLIKEN ATOMIC CHARGES
-----------------------
   0 O :   -0.200042
   1 C :    0.066707
   2 N :   -0.153303
   3 C :    0.106955
   4 C :    0.049188
   5 C :   -0.051225
   6 C :   -0.039762
   7 H :    0.113041
   8 H :    0.011821
   9 H :    0.025238
  10 H :    0.041897
  11 H :    0.024408
  12 H :    0.006732
  13 H :   -0.001655
Sum of atomic charges:    0.0000000

LOEWDIN ATOMIC CHARGES
----------------------
   0 O :   -0.185668
   1 C :    0.015993
   2 N :   -0.013216
   3 C :    0.029029
   4 C :   -0.046469
   5 C :   -0.005796
   6 C :   -0.061277
   7 H :    0.072927
   8 H :    0.026957
   9 H :    0.017985
  10 H :    0.044238
  11 H :    0.038838
  12 H :    0.029176
  13 H :    0.037285

  Mayer bond orders larger than 0.1
B(  0-O ,  1-C ) :   2.0893 B(  1-C ,  2-N ) :   1.1774 B(  1-C ,  6-C ) :   0.9898
B(  2-N ,  3-C ) :   1.0067 B(  2-N ,  7-H ) :   0.9152 B(  3-C ,  4-C ) :   1.1069
B(  3-C ,  8-H ) :   0.9327 B(  3-C ,  9-H ) :   0.9339 B(  4-C ,  5-C ) :   1.0508
B(  4-C , 10-H ) :   0.8933 B(  4-C , 11-H ) :   0.9206 B(  5-C ,  6-C ) :   1.8136
B(  5-C , 12-H ) :   0.9571 B(  6-C , 13-H ) :   0.9714

FINAL SINGLE POINT ENERGY      -324.088710303319

DIPOLE MOMENT
-------------
                                X             Y             Z
Electronic contribution:     -5.38712      -0.61808       0.63598
Nuclear contribution   :      6.93164       1.04229      -0.84328
                        -----------------------------------------
Total Dipole Moment    :      1.54452       0.42422      -0.20730
                        -----------------------------------------
Magnitude (a.u.)       :      1.61508
Magnitude (Debye)      :      4.10520

                             ****ORCA TERMINATED NORMALLY****
TOTAL RUN TIME: 0 days 0 hours 0 minutes 7 seconds 32 msec
