                         Program Version 3.0.3 - RELEASE   -
|  1> ! RI PBE def2-SVP def2-SVP/J NBO PAL2
|  2> % maxcore 2000
|  3> % output
|  4>     # printlevel mini
|  5>     print[ P_Basis ] 0
|  6>     print[ P_SCFInfo ] 1
|  7>     print[ P_SCFIterInfo ] 1
|  8>     print[ P_OrbEn ] 0
|  9>     print[ P_Cartesian ] 0
| 10> end
| 11> *xyz 0 1
| 12>  O        1.1258220000     0.1077160000     0.2089510000
| 13>  C        2.3236120000     0.0486980000     0.0687240000
| 14>  N        3.0586570000     1.2453230000    -0.0522840000
| 15>  C        4.3905940000     1.3021260000    -0.2119220000
| 16>  C        5.1010050000     0.1477400000    -0.2636330000
| 17>  C        4.3486380000    -1.0463400000    -0.1407000000
| 18>  N        3.0611220000    -1.1146290000     0.0139690000
| 19>  H        2.5040010000     2.0871150000    -0.0102620000
| 20>  H        4.8327400000     2.2883290000    -0.2922160000
| 21>  H        6.1728920000     0.1424680000    -0.3906550000
| 22>  H        4.8739180000    -2.0007560000    -0.1760820000
| 23> *
| 24>
| 25>                          ****END OF INPUT****
 Total Charge           Charge          ....    0
 Multiplicity           Mult            ....    1
 Number of Electrons    NEL             ....   50
 Basis Dimension        Dim             ....  118

MULLIKEN ATOMIC CHARGES
-----------------------
   0 O :   -0.172109
   1 C :    0.078752
   2 N :   -0.058002
   3 C :    0.120516
   4 C :   -0.087710
   5 C :    0.047601
   6 N :   -0.120580
   7 H :    0.135147
   8 H :    0.024276
   9 H :    0.013422
  10 H :    0.018686
Sum of atomic charges:   -0.0000000

LOEWDIN ATOMIC CHARGES
----------------------
   0 O :   -0.172773
   1 C :    0.007564
   2 N :    0.075694
   3 C :    0.061830
   4 C :   -0.115756
   5 C :    0.047064
   6 N :   -0.096703
   7 H :    0.092934
   8 H :    0.035557
   9 H :    0.038840
  10 H :    0.025748

  Mayer bond orders larger than 0.1
B(  0-O ,  1-C ) :   2.1327 B(  1-C ,  2-N ) :   0.9959 B(  1-C ,  6-N ) :   1.1867
B(  2-N ,  3-C ) :   1.3000 B(  2-N ,  7-H ) :   0.9064 B(  3-C ,  4-C ) :   1.5347
B(  3-C ,  8-H ) :   0.9601 B(  4-C ,  5-C ) :   1.2296 B(  4-C ,  9-H ) :   0.9691
B(  5-C ,  6-N ) :   1.7244 B(  5-C , 10-H ) :   0.9647

FINAL SINGLE POINT ENERGY      -338.924913477172

DIPOLE MOMENT
-------------
                                X             Y             Z
Electronic contribution:     -3.13321      -0.54111       0.38284
Nuclear contribution   :      4.85531       1.91073      -0.62989
                        -----------------------------------------
Total Dipole Moment    :      1.72210       1.36962      -0.24705
                        -----------------------------------------
Magnitude (a.u.)       :      2.21416
Magnitude (Debye)      :      5.62795

                             ****ORCA TERMINATED NORMALLY****
TOTAL RUN TIME: 0 days 0 hours 0 minutes 5 seconds 452 msec
