                         Program Version 3.0.3 - RELEASE   -
|  1> ! RI PBE def2-SVP def2-SVP/J NBO PAL2
|  2> % maxcore 2000
|  3> % output
|  4>     # printlevel mini
|  5>     print[ P_Basis ] 0
|  6>     print[ P_SCFInfo ] 1
|  7>     print[ P_SCFIterInfo ] 1
|  8>     print[ P_OrbEn ] 0
|  9>     print[ P_Cartesian ] 0
| 10> end
| 11> *xyz 0 1
| 12>  O        1.4133810000     0.1151920000     1.0152510000
| 13>  C        2.3779670000     0.0798840000     0.2716510000
| 14>  N        2.9417380000    -1.0990620000    -0.1338130000
| 15>  C        3.9341460000    -1.2206760000    -1.1757620000
| 16>  C        4.8361010000    -0.0024250000    -1.1541300000
| 17>  C        3.9933560000     1.2561950000    -1.2161570000
| 18>  N        2.9981850000     1.2167040000    -0.1705400000
| 19>  H        2.4034430000    -1.9048130000     0.1337790000
| 20>  H        3.4689400000    -1.3187500000    -2.1676300000
| 21>  H        4.5181840000    -2.1283080000    -1.0024430000
| 22>  H        5.5272340000    -0.0327760000    -1.9989890000
| 23>  H        5.4247860000    -0.0013630000    -0.2325800000
| 24>  H        3.5317980000     1.3436140000    -2.2107450000
| 25>  H        4.6204950000     2.1400320000    -1.0730320000
| 26>  H        2.4986480000     2.0554520000     0.0694310000
| 27> *
| 28>
| 29>                          ****END OF INPUT****
 Total Charge           Charge          ....    0
 Multiplicity           Mult            ....    1
 Number of Electrons    NEL             ....   54
 Basis Dimension        Dim             ....  138

MULLIKEN ATOMIC CHARGES
-----------------------
   0 O :   -0.238185
   1 C :    0.079315
   2 N :   -0.192527
   3 C :    0.136738
   4 C :   -0.083551
   5 C :    0.137638
   6 N :   -0.192662
   7 H :    0.119115
   8 H :    0.008245
   9 H :    0.016124
  10 H :    0.029591
  11 H :    0.036719
  12 H :    0.007754
  13 H :    0.017214
  14 H :    0.118472
Sum of atomic charges:   -0.0000000

LOEWDIN ATOMIC CHARGES
----------------------
   0 O :   -0.237534
   1 C :    0.015724
   2 N :   -0.035818
   3 C :    0.025330
   4 C :   -0.050540
   5 C :    0.025250
   6 N :   -0.035925
   7 H :    0.075362
   8 H :    0.011963
   9 H :    0.025593
  10 H :    0.035021
  11 H :    0.032793
  12 H :    0.011880
  13 H :    0.025759
  14 H :    0.075143

  Mayer bond orders larger than 0.1
B(  0-O ,  1-C ) :   2.0844 B(  1-C ,  2-N ) :   1.1255 B(  1-C ,  6-N ) :   1.1253
B(  2-N ,  3-C ) :   1.0058 B(  2-N ,  7-H ) :   0.9255 B(  3-C ,  4-C ) :   1.0932
B(  3-C ,  8-H ) :   0.9332 B(  3-C ,  9-H ) :   0.9366 B(  4-C ,  5-C ) :   1.0926
B(  4-C , 10-H ) :   0.9349 B(  4-C , 11-H ) :   0.9311 B(  5-C ,  6-N ) :   1.0055
B(  5-C , 12-H ) :   0.9328 B(  5-C , 13-H ) :   0.9369 B(  6-N , 14-H ) :   0.9253

FINAL SINGLE POINT ENERGY      -341.338364706867

DIPOLE MOMENT
-------------
                                X             Y             Z
Electronic contribution:     -4.85893       0.18281       4.10093
Nuclear contribution   :      6.00384      -0.23029      -5.24411
                        -----------------------------------------
Total Dipole Moment    :      1.14491      -0.04748      -1.14318
                        -----------------------------------------
Magnitude (a.u.)       :      1.61862
Magnitude (Debye)      :      4.11421

                             ****ORCA TERMINATED NORMALLY****
TOTAL RUN TIME: 0 days 0 hours 0 minutes 7 seconds 391 msec
