                         Program Version 3.0.3 - RELEASE   -
|  1> ! RI PBE def2-SVP def2-SVP/J NBO PAL2
|  2> % maxcore 2000
|  3> % output
|  4>     # printlevel mini
|  5>     print[ P_Basis ] 0
|  6>     print[ P_SCFInfo ] 1
|  7>     print[ P_SCFIterInfo ] 1
|  8>     print[ P_OrbEn ] 0
|  9>     print[ P_Cartesian ] 0
| 10> end
| 11> *xyz 0 1
| 12>  O        0.9100140000     0.0251490000    -0.0688620000
| 13>  C        2.1250920000     0.0372800000    -0.0737620000
| 14>  N        2.8586060000     1.1815110000    -0.0850330000
| 15>  C        4.3031850000     1.3196200000    -0.0921610000
| 16>  C        4.9608780000    -0.0194460000    -0.0844830000
| 17>  C        4.2448270000    -1.1383100000    -0.0733250000
| 18>  N        2.8632460000    -1.1264630000    -0.0681700000
| 19>  H        2.2916490000     2.0118370000    -0.0888920000
| 20>  H        4.6255380000     1.9046790000     0.7811380000
| 21>  H        4.6182520000     1.8910240000    -0.9770980000
| 22>  H        6.0408060000    -0.0644870000    -0.0882400000
| 23>  H        4.7020430000    -2.1198340000    -0.0676460000
| 24>  H        2.3272720000    -1.9748690000    -0.0597550000
| 25> *
| 26>
| 27>                          ****END OF INPUT****
 Total Charge           Charge          ....    0
 Multiplicity           Mult            ....    1
 Number of Electrons    NEL             ....   52
 Basis Dimension        Dim             ....  128

MULLIKEN ATOMIC CHARGES
-----------------------
   0 O :   -0.217338
   1 C :    0.091552
   2 N :   -0.196585
   3 C :    0.229349
   4 C :   -0.205658
   5 C :    0.091028
   6 N :   -0.102521
   7 H :    0.123804
   8 H :    0.024717
   9 H :    0.024442
  10 H :    0.011224
  11 H :    0.001845
  12 H :    0.124140
Sum of atomic charges:   -0.0000000

LOEWDIN ATOMIC CHARGES
----------------------
   0 O :   -0.217841
   1 C :    0.028547
   2 N :   -0.020390
   3 C :    0.032915
   4 C :   -0.111679
   5 C :    0.005065
   6 N :    0.011394
   7 H :    0.079357
   8 H :    0.022837
   9 H :    0.022747
  10 H :    0.033340
  11 H :    0.028608
  12 H :    0.085100

  Mayer bond orders larger than 0.1
B(  0-O ,  1-C ) :   2.1038 B(  1-C ,  2-N ) :   1.1652 B(  1-C ,  6-N ) :   1.0611
B(  2-N ,  3-C ) :   0.9880 B(  2-N ,  7-H ) :   0.9206 B(  3-C ,  4-C ) :   1.0413
B(  3-C ,  8-H ) :   0.9243 B(  3-C ,  9-H ) :   0.9243 B(  4-C ,  5-C ) :   1.8230
B(  4-C , 10-H ) :   0.9618 B(  5-C ,  6-N ) :   1.1142 B(  5-C , 11-H ) :   0.9574
B(  6-N , 12-H ) :   0.9189

FINAL SINGLE POINT ENERGY      -340.127274295198

DIPOLE MOMENT
-------------
                                X             Y             Z
Electronic contribution:     -4.22635      -1.26771       0.02646
Nuclear contribution   :      5.41700       1.24584      -0.03101
                        -----------------------------------------
Total Dipole Moment    :      1.19065      -0.02188      -0.00455
                        -----------------------------------------
Magnitude (a.u.)       :      1.19086
Magnitude (Debye)      :      3.02693

                             ****ORCA TERMINATED NORMALLY****
TOTAL RUN TIME: 0 days 0 hours 0 minutes 6 seconds 651 msec
