                         Program Version 3.0.3 - RELEASE   -
|  1> ! RI PBE def2-SVP def2-SVP/J NBO PAL2
|  2> % maxcore 2000
|  3> % output
|  4>     # printlevel mini
|  5>     print[ P_Basis ] 0
|  6>     print[ P_SCFInfo ] 1
|  7>     print[ P_SCFIterInfo ] 1
|  8>     print[ P_OrbEn ] 0
|  9>     print[ P_Cartesian ] 0
| 10> end
| 11> *xyz 0 1
| 12>  O        1.0639280000    -0.0143600000    -0.1959860000
| 13>  C        2.2293630000    -0.1453800000    -0.0068520000
| 14>  O        2.9941070000     1.0524380000     0.0444410000
| 15>  C        4.2986000000     1.0216730000     0.2497660000
| 16>  C        4.9694390000    -0.1322910000     0.4200380000
| 17>  C        4.1796290000    -1.3115230000     0.3637910000
| 18>  N        2.9017130000    -1.3300690000     0.1654420000
| 19>  H        4.7438650000     2.0107380000     0.2630490000
| 20>  H        6.0355960000    -0.1525820000     0.5875790000
| 21>  H        4.6590610000    -2.2812240000     0.4937320000
| 22> *
| 23>
| 24>                          ****END OF INPUT****
 Total Charge           Charge          ....    0
 Multiplicity           Mult            ....    1
 Number of Electrons    NEL             ....   50
 Basis Dimension        Dim             ....  113

MULLIKEN ATOMIC CHARGES
-----------------------
   0 O :   -0.114259
   1 C :    0.135769
   2 O :   -0.170494
   3 C :    0.182306
   4 C :   -0.074847
   5 C :    0.059203
   6 N :   -0.113234
   7 H :    0.041265
   8 H :    0.025221
   9 H :    0.029071
Sum of atomic charges:   -0.0000000

LOEWDIN ATOMIC CHARGES
----------------------
   0 O :   -0.104056
   1 C :    0.034946
   2 O :   -0.001032
   3 C :    0.106812
   4 C :   -0.119876
   5 C :    0.064303
   6 N :   -0.092527
   7 H :    0.035634
   8 H :    0.045241
   9 H :    0.030556

  Mayer bond orders larger than 0.1
B(  0-O ,  1-C ) :   2.1875 B(  1-C ,  2-O ) :   0.9303 B(  1-C ,  6-N ) :   1.2038
B(  2-O ,  3-C ) :   1.2489 B(  3-C ,  4-C ) :   1.5748 B(  3-C ,  7-H ) :   0.9735
B(  4-C ,  5-C ) :   1.1884 B(  4-C ,  8-H ) :   0.9661 B(  5-C ,  6-N ) :   1.7338
B(  5-C ,  9-H ) :   0.9666

FINAL SINGLE POINT ENERGY      -358.744152570086

DIPOLE MOMENT
-------------
                                X             Y             Z
Electronic contribution:     -3.45274       0.49241      -0.56192
Nuclear contribution   :      5.47669      -0.11691       0.86127
                        -----------------------------------------
Total Dipole Moment    :      2.02395       0.37550       0.29935
                        -----------------------------------------
Magnitude (a.u.)       :      2.08014
Magnitude (Debye)      :      5.28730

                             ****ORCA TERMINATED NORMALLY****
TOTAL RUN TIME: 0 days 0 hours 0 minutes 5 seconds 340 msec
