                         Program Version 3.0.3 - RELEASE   -
|  1> ! RI PBE def2-SVP def2-SVP/J NBO PAL2
|  2> % maxcore 2000
|  3> % output
|  4>     # printlevel mini
|  5>     print[ P_Basis ] 0
|  6>     print[ P_SCFInfo ] 1
|  7>     print[ P_SCFIterInfo ] 1
|  8>     print[ P_OrbEn ] 0
|  9>     print[ P_Cartesian ] 0
| 10> end
| 11> *xyz 0 1
| 12>  O        1.4085940000     0.0742320000     0.9939180000
| 13>  C        2.3302600000     0.0200920000     0.2217880000
| 14>  N        2.8209370000    -1.1515490000    -0.2680090000
| 15>  C        3.9719440000    -1.3367330000    -1.1226550000
| 16>  C        4.8083620000    -0.0764880000    -1.0974710000
| 17>  C        3.8827260000     1.1048790000    -1.2478750000
| 18>  O        2.9368140000     1.1553090000    -0.1851430000
| 19>  H        2.3124360000    -1.9551560000     0.0573140000
| 20>  H        3.6585260000    -1.5551460000    -2.1520150000
| 21>  H        4.5491850000    -2.1955880000    -0.7691240000
| 22>  H        5.5425700000    -0.0897020000    -1.9057430000
| 23>  H        5.3483080000     0.0058510000    -0.1499920000
| 24>  H        3.3464740000     1.0588480000    -2.2038800000
| 25>  H        4.4173530000     2.0539530000    -1.2039150000
| 26> *
| 27>
| 28>                          ****END OF INPUT****
 Total Charge           Charge          ....    0
 Multiplicity           Mult            ....    1
 Number of Electrons    NEL             ....   54
 Basis Dimension        Dim             ....  133

MULLIKEN ATOMIC CHARGES
-----------------------
   0 O :   -0.201070
   1 C :    0.151677
   2 N :   -0.213264
   3 C :    0.148105
   4 C :   -0.102359
   5 C :    0.177405
   6 O :   -0.262174
   7 H :    0.128695
   8 H :    0.019549
   9 H :    0.024562
  10 H :    0.037162
  11 H :    0.043742
  12 H :    0.017818
  13 H :    0.030151
Sum of atomic charges:    0.0000000

LOEWDIN ATOMIC CHARGES
----------------------
   0 O :   -0.190355
   1 C :    0.017241
   2 N :   -0.030110
   3 C :    0.027094
   4 C :   -0.062880
   5 C :    0.072402
   6 O :   -0.081809
   7 H :    0.081886
   8 H :    0.017374
   9 H :    0.026775
  10 H :    0.040339
  11 H :    0.035683
  12 H :    0.017547
  13 H :    0.028811

  Mayer bond orders larger than 0.1
B(  0-O ,  1-C ) :   2.1163 B(  1-C ,  2-N ) :   1.1467 B(  1-C ,  6-O ) :   1.1094
B(  2-N ,  3-C ) :   0.9853 B(  2-N ,  7-H ) :   0.9280 B(  3-C ,  4-C ) :   1.0913
B(  3-C ,  8-H ) :   0.9341 B(  3-C ,  9-H ) :   0.9397 B(  4-C ,  5-C ) :   1.0907
B(  4-C , 10-H ) :   0.9291 B(  4-C , 11-H ) :   0.9267 B(  5-C ,  6-O ) :   0.9587
B(  5-C , 12-H ) :   0.9394 B(  5-C , 13-H ) :   0.9456

FINAL SINGLE POINT ENERGY      -361.170219598252

DIPOLE MOMENT
-------------
                                X             Y             Z
Electronic contribution:     -5.22071       1.50819       4.06995
Nuclear contribution   :      6.65058      -2.32858      -5.30761
                        -----------------------------------------
Total Dipole Moment    :      1.42987      -0.82040      -1.23766
                        -----------------------------------------
Magnitude (a.u.)       :      2.06140
Magnitude (Debye)      :      5.23967

                             ****ORCA TERMINATED NORMALLY****
TOTAL RUN TIME: 0 days 0 hours 0 minutes 6 seconds 156 msec
