                         Program Version 3.0.3 - RELEASE   -
|  1> ! RI PBE def2-SVP def2-SVP/J NBO PAL2
|  2> % maxcore 2000
|  3> % output
|  4>     # printlevel mini
|  5>     print[ P_Basis ] 0
|  6>     print[ P_SCFInfo ] 1
|  7>     print[ P_SCFIterInfo ] 1
|  8>     print[ P_OrbEn ] 0
|  9>     print[ P_Cartesian ] 0
| 10> end
| 11> *xyz 0 1
| 12>  O        1.0152860000    -0.0467540000     0.0658210000
| 13>  C        2.2153230000    -0.0560800000     0.0701610000
| 14>  N        2.9466870000    -1.2160850000     0.0632520000
| 15>  C        4.3306710000    -1.2500760000     0.0674610000
| 16>  C        5.0352160000    -0.1281960000     0.0795660000
| 17>  C        4.3395210000     1.1845740000     0.0889020000
| 18>  O        2.9075840000     1.0912950000     0.0820900000
| 19>  H        2.4021500000    -2.0595220000     0.0540720000
| 20>  H        4.7771380000    -2.2358020000     0.0602690000
| 21>  H        6.1160670000    -0.1446710000     0.0829200000
| 22>  H        4.6128130000     1.7857020000    -0.7857610000
| 23>  H        4.6056640000     1.7694150000     0.9767370000
| 24> *
| 25>
| 26>                          ****END OF INPUT****
 Total Charge           Charge          ....    0
 Multiplicity           Mult            ....    1
 Number of Electrons    NEL             ....   52
 Basis Dimension        Dim             ....  123

MULLIKEN ATOMIC CHARGES
-----------------------
   0 O :   -0.179767
   1 C :    0.163472
   2 N :   -0.117072
   3 C :    0.096746
   4 C :   -0.195431
   5 C :    0.252483
   6 O :   -0.262964
   7 H :    0.132669
   8 H :    0.008960
   9 H :    0.019930
  10 H :    0.040646
  11 H :    0.040328
Sum of atomic charges:   -0.0000000

LOEWDIN ATOMIC CHARGES
----------------------
   0 O :   -0.165615
   1 C :    0.034883
   2 N :    0.010820
   3 C :    0.006093
   4 C :   -0.115998
   5 C :    0.085310
   6 O :   -0.074325
   7 H :    0.090436
   8 H :    0.030868
   9 H :    0.038290
  10 H :    0.029667
  11 H :    0.029569

  Mayer bond orders larger than 0.1
B(  0-O ,  1-C ) :   2.1290 B(  1-C ,  2-N ) :   1.0872 B(  1-C ,  6-O ) :   1.1459
B(  2-N ,  3-C ) :   1.0952 B(  2-N ,  7-H ) :   0.9206 B(  3-C ,  4-C ) :   1.8229
B(  3-C ,  8-H ) :   0.9619 B(  4-C ,  5-C ) :   1.0526 B(  4-C ,  9-H ) :   0.9577
B(  5-C ,  6-O ) :   0.9413 B(  5-C , 10-H ) :   0.9339 B(  5-C , 11-H ) :   0.9339

FINAL SINGLE POINT ENERGY      -359.955419796339

DIPOLE MOMENT
-------------
                                X             Y             Z
Electronic contribution:     -4.52728      -0.11977      -0.01828
Nuclear contribution   :      6.03163      -0.62043       0.01764
                        -----------------------------------------
Total Dipole Moment    :      1.50435      -0.74020      -0.00064
                        -----------------------------------------
Magnitude (a.u.)       :      1.67660
Magnitude (Debye)      :      4.26157

                             ****ORCA TERMINATED NORMALLY****
TOTAL RUN TIME: 0 days 0 hours 0 minutes 5 seconds 857 msec
