                         Program Version 3.0.3 - RELEASE   -
|  1> ! RI PBE def2-SVP def2-SVP/J NBO PAL2
|  2> % maxcore 2000
|  3> % output
|  4>     # printlevel mini
|  5>     print[ P_Basis ] 0
|  6>     print[ P_SCFInfo ] 1
|  7>     print[ P_SCFIterInfo ] 1
|  8>     print[ P_OrbEn ] 0
|  9>     print[ P_Cartesian ] 0
| 10> end
| 11> *xyz 0 1
| 12>  O        1.0511080000    -0.0237940000    -0.4695800000
| 13>  C        2.1988910000     0.0884420000    -0.1593230000
| 14>  N        2.9973010000     1.2597060000    -0.3446350000
| 15>  C        4.1257950000     1.0018130000     0.1885320000
| 16>  N        4.3053690000    -0.2337930000     0.8542620000
| 17>  C        4.3295070000    -1.3236050000    -0.1318470000
| 18>  C        3.0655440000    -0.9268830000     0.5383200000
| 19>  H        4.9689630000     1.6854350000     0.1581980000
| 20>  H        4.8275730000    -2.2292600000     0.1937320000
| 21>  H        4.4685670000    -1.0499770000    -1.1728990000
| 22>  H        2.6287920000    -1.5680840000     1.2927390000
| 23> *
| 24>
| 25>                          ****END OF INPUT****
 Total Charge           Charge          ....    0
 Multiplicity           Mult            ....    1
 Number of Electrons    NEL             ....   50
 Basis Dimension        Dim             ....  118

MULLIKEN ATOMIC CHARGES
-----------------------
   0 O :   -0.105452
   1 C :    0.123130
   2 N :   -0.125692
   3 C :    0.094291
   4 N :   -0.207096
   5 C :    0.100208
   6 C :   -0.113540
   7 H :    0.042851
   8 H :    0.063075
   9 H :    0.066663
  10 H :    0.061562
Sum of atomic charges:   -0.0000000

LOEWDIN ATOMIC CHARGES
----------------------
   0 O :   -0.092198
   1 C :    0.026705
   2 N :   -0.102751
   3 C :    0.070944
   4 N :   -0.080411
   5 C :    0.062814
   6 C :   -0.023487
   7 H :    0.027748
   8 H :    0.036086
   9 H :    0.030722
  10 H :    0.043828

  Mayer bond orders larger than 0.1
B(  0-O ,  1-C ) :   2.2113 B(  1-C ,  2-N ) :   1.0791 B(  1-C ,  6-C ) :   0.9191
B(  2-N ,  3-C ) :   1.8164 B(  3-C ,  4-N ) :   1.0907 B(  3-C ,  7-H ) :   0.9662
B(  4-N ,  5-C ) :   0.9387 B(  4-N ,  6-C ) :   0.9151 B(  5-C ,  6-C ) :   1.0017
B(  5-C ,  8-H ) :   0.9486 B(  5-C ,  9-H ) :   0.9243 B(  6-C , 10-H ) :   0.9469

FINAL SINGLE POINT ENERGY      -338.859178561068

DIPOLE MOMENT
-------------
                                X             Y             Z
Electronic contribution:     -2.74353       2.04693       0.00887
Nuclear contribution   :      4.07206      -2.83789       0.22871
                        -----------------------------------------
Total Dipole Moment    :      1.32852      -0.79096       0.23758
                        -----------------------------------------
Magnitude (a.u.)       :      1.56430
Magnitude (Debye)      :      3.97614

                             ****ORCA TERMINATED NORMALLY****
TOTAL RUN TIME: 0 days 0 hours 0 minutes 6 seconds 194 msec
