                         Program Version 3.0.3 - RELEASE   -
|  1> ! RI PBE def2-SVP def2-SVP/J NBO PAL2
|  2> % maxcore 2000
|  3> % output
|  4>     # printlevel mini
|  5>     print[ P_Basis ] 0
|  6>     print[ P_SCFInfo ] 1
|  7>     print[ P_SCFIterInfo ] 1
|  8>     print[ P_OrbEn ] 0
|  9>     print[ P_Cartesian ] 0
| 10> end
| 11> *xyz 0 1
| 12>  O        1.1707330000    -0.0250460000    -0.4650360000
| 13>  C        2.3288820000     0.0517860000    -0.1573810000
| 14>  N        3.1831350000    -1.0081410000     0.0987520000
| 15>  C        4.4563820000    -0.5729660000     0.4277830000
| 16>  O        5.3986270000    -1.2665900000     0.6978280000
| 17>  C        4.3906290000     0.9204320000     0.3710040000
| 18>  C        3.1580770000     1.2823770000     0.0319990000
| 19>  H        2.9119030000    -1.9759600000     0.0515840000
| 20>  H        5.2517190000     1.5366670000     0.5850280000
| 21>  H        2.7471020000     2.2721610000    -0.1038500000
| 22> *
| 23>
| 24>                          ****END OF INPUT****
 Total Charge           Charge          ....    0
 Multiplicity           Mult            ....    1
 Number of Electrons    NEL             ....   50
 Basis Dimension        Dim             ....  113

MULLIKEN ATOMIC CHARGES
-----------------------
   0 O :   -0.126672
   1 C :    0.134259
   2 N :   -0.127037
   3 C :    0.134518
   4 O :   -0.126573
   5 C :   -0.025340
   6 C :   -0.026705
   7 H :    0.128297
   8 H :    0.018624
   9 H :    0.016629
Sum of atomic charges:   -0.0000000

LOEWDIN ATOMIC CHARGES
----------------------
   0 O :   -0.115076
   1 C :    0.042328
   2 N :    0.012247
   3 C :    0.041860
   4 O :   -0.115012
   5 C :   -0.018260
   6 C :   -0.018415
   7 H :    0.089076
   8 H :    0.040851
   9 H :    0.040400

  Mayer bond orders larger than 0.1
B(  0-O ,  1-C ) :   2.1706 B(  1-C ,  2-N ) :   1.0767 B(  1-C ,  6-C ) :   0.9368
B(  2-N ,  3-C ) :   1.0757 B(  2-N ,  7-H ) :   0.9194 B(  3-C ,  4-O ) :   2.1681
B(  3-C ,  5-C ) :   0.9395 B(  5-C ,  6-C ) :   1.7001 B(  5-C ,  8-H ) :   1.0059
B(  6-C ,  9-H ) :   1.0089

FINAL SINGLE POINT ENERGY      -358.774444034414

DIPOLE MOMENT
-------------
                                X             Y             Z
Electronic contribution:     -0.45818      -1.63050      -0.07881
Nuclear contribution   :      0.57985       2.06890       0.10068
                        -----------------------------------------
Total Dipole Moment    :      0.12167       0.43840       0.02186
                        -----------------------------------------
Magnitude (a.u.)       :      0.45550
Magnitude (Debye)      :      1.15778

                             ****ORCA TERMINATED NORMALLY****
TOTAL RUN TIME: 0 days 0 hours 0 minutes 4 seconds 952 msec
