                         Program Version 3.0.3 - RELEASE   -
|  1> ! RI PBE def2-SVP def2-SVP/J NBO PAL2
|  2> % maxcore 2000
|  3> % output
|  4>     # printlevel mini
|  5>     print[ P_Basis ] 0
|  6>     print[ P_SCFInfo ] 1
|  7>     print[ P_SCFIterInfo ] 1
|  8>     print[ P_OrbEn ] 0
|  9>     print[ P_Cartesian ] 0
| 10> end
| 11> *xyz 0 1
| 12>  O        1.4241380000     0.1057520000     0.7187120000
| 13>  C        2.4143930000    -0.0461630000     0.0451380000
| 14>  N        2.7431730000    -1.1957650000    -0.6338700000
| 15>  N        4.1288650000    -1.2587270000    -0.9549190000
| 16>  C        4.6046300000     0.1093150000    -0.8396310000
| 17>  C        3.9005830000     1.1718000000    -1.6172900000
| 18>  C        3.5320400000     0.9167980000    -0.1785120000
| 19>  H        2.3626290000    -2.0567030000    -0.2703890000
| 20>  H        4.1924460000    -1.5431580000    -1.9290030000
| 21>  H        5.6537920000     0.2116100000    -0.5937420000
| 22>  H        3.1925780000     0.8786630000    -2.3841020000
| 23>  H        4.4471820000     2.0848170000    -1.8164960000
| 24>  H        3.7063590000     1.6653510000     0.5804160000
| 25> *
| 26>
| 27>                          ****END OF INPUT****
 Total Charge           Charge          ....    0
 Multiplicity           Mult            ....    1
 Number of Electrons    NEL             ....   52
 Basis Dimension        Dim             ....  128

MULLIKEN ATOMIC CHARGES
-----------------------
   0 O :   -0.175221
   1 C :    0.175194
   2 N :   -0.142611
   3 N :   -0.081988
   4 C :   -0.008998
   5 C :    0.037285
   6 C :   -0.208696
   7 H :    0.131211
   8 H :    0.118907
   9 H :    0.033688
  10 H :    0.041346
  11 H :    0.041205
  12 H :    0.038679
Sum of atomic charges:   -0.0000000

LOEWDIN ATOMIC CHARGES
----------------------
   0 O :   -0.171224
   1 C :    0.017808
   2 N :    0.017076
   3 N :   -0.031626
   4 C :    0.001646
   5 C :   -0.039039
   6 C :   -0.058233
   7 H :    0.074186
   8 H :    0.058573
   9 H :    0.026304
  10 H :    0.030311
  11 H :    0.035200
  12 H :    0.039018

  Mayer bond orders larger than 0.1
B(  0-O ,  1-C ) :   2.1623 B(  1-C ,  2-N ) :   1.0993 B(  1-C ,  6-C ) :   0.9494
B(  2-N ,  3-N ) :   0.9957 B(  2-N ,  7-H ) :   0.9293 B(  3-N ,  4-C ) :   1.0594
B(  3-N ,  8-H ) :   0.9358 B(  4-C ,  5-C ) :   0.9806 B(  4-C ,  6-C ) :   0.9049
B(  4-C ,  9-H ) :   0.9531 B(  5-C ,  6-C ) :   0.9460 B(  5-C , 10-H ) :   0.9329
B(  5-C , 11-H ) :   0.9389 B(  6-C , 12-H ) :   0.9553

FINAL SINGLE POINT ENERGY      -340.059273935743

DIPOLE MOMENT
-------------
                                X             Y             Z
Electronic contribution:     -2.88293      -1.66563       2.37024
Nuclear contribution   :      3.92215       1.47431      -3.22903
                        -----------------------------------------
Total Dipole Moment    :      1.03923      -0.19131      -0.85880
                        -----------------------------------------
Magnitude (a.u.)       :      1.36166
Magnitude (Debye)      :      3.46107

                             ****ORCA TERMINATED NORMALLY****
TOTAL RUN TIME: 0 days 0 hours 0 minutes 5 seconds 876 msec
