                         Program Version 3.0.3 - RELEASE   -
|  1> ! RI PBE def2-SVP def2-SVP/J NBO PAL2
|  2> % maxcore 2000
|  3> % output
|  4>     # printlevel mini
|  5>     print[ P_Basis ] 0
|  6>     print[ P_SCFInfo ] 1
|  7>     print[ P_SCFIterInfo ] 1
|  8>     print[ P_OrbEn ] 0
|  9>     print[ P_Cartesian ] 0
| 10> end
| 11> *xyz 0 1
| 12>  O        1.0676100000     0.0821650000    -0.3660410000
| 13>  C        2.2553050000     0.0873490000    -0.1080540000
| 14>  N        3.0025480000     1.2267170000    -0.1216840000
| 15>  N        4.3232010000     1.2899260000     0.3299760000
| 16>  C        5.0833940000     0.1585050000    -0.1696180000
| 17>  C        4.3633680000    -1.1373200000     0.0497380000
| 18>  C        3.0353430000    -1.1461020000     0.1456780000
| 19>  H        2.5545530000     2.0988450000    -0.3510780000
| 20>  H        4.3141540000     1.2421130000     1.3466960000
| 21>  H        6.0503010000     0.1623090000     0.3398370000
| 22>  H        5.2872080000     0.3041050000    -1.2385420000
| 23>  H        4.9374320000    -2.0580440000     0.1091860000
| 24>  H        2.4557740000    -2.0481580000     0.2957050000
| 25> *
| 26>
| 27>                          ****END OF INPUT****
 Total Charge           Charge          ....    0
 Multiplicity           Mult            ....    1
 Number of Electrons    NEL             ....   52
 Basis Dimension        Dim             ....  128

MULLIKEN ATOMIC CHARGES
-----------------------
   0 O :   -0.194041
   1 C :    0.073724
   2 N :   -0.105692
   3 N :   -0.132923
   4 C :    0.161282
   5 C :   -0.094306
   6 C :   -0.025989
   7 H :    0.121035
   8 H :    0.111520
   9 H :    0.027835
  10 H :    0.043387
  11 H :    0.010373
  12 H :    0.003795
Sum of atomic charges:   -0.0000000

LOEWDIN ATOMIC CHARGES
----------------------
   0 O :   -0.181989
   1 C :    0.005589
   2 N :    0.028460
   3 N :   -0.034019
   4 C :    0.002479
   5 C :   -0.024419
   6 C :   -0.061563
   7 H :    0.070568
   8 H :    0.052954
   9 H :    0.036074
  10 H :    0.038203
  11 H :    0.029108
  12 H :    0.038556

  Mayer bond orders larger than 0.1
B(  0-O ,  1-C ) :   2.0905 B(  0-O ,  2-N ) :   0.1016 B(  1-C ,  2-N ) :   1.1509
B(  1-C ,  6-C ) :   0.9935 B(  2-N ,  3-N ) :   0.9958 B(  2-N ,  7-H ) :   0.9224
B(  3-N ,  4-C ) :   1.0799 B(  3-N ,  8-H ) :   0.9457 B(  4-C ,  5-C ) :   1.0204
B(  4-C ,  9-H ) :   0.9311 B(  4-C , 10-H ) :   0.9035 B(  5-C ,  6-C ) :   1.8177
B(  5-C , 11-H ) :   0.9555 B(  6-C , 12-H ) :   0.9747

FINAL SINGLE POINT ENERGY      -340.072790680428

DIPOLE MOMENT
-------------
                                X             Y             Z
Electronic contribution:     -4.12626       0.93319      -0.23300
Nuclear contribution   :      5.48327      -0.94491       0.66370
                        -----------------------------------------
Total Dipole Moment    :      1.35700      -0.01172       0.43070
                        -----------------------------------------
Magnitude (a.u.)       :      1.42376
Magnitude (Debye)      :      3.61891

                             ****ORCA TERMINATED NORMALLY****
TOTAL RUN TIME: 0 days 0 hours 0 minutes 6 seconds 445 msec
