                         Program Version 3.0.3 - RELEASE   -
|  1> ! RI PBE def2-SVP def2-SVP/J NBO PAL2
|  2> % maxcore 2000
|  3> % output
|  4>     # printlevel mini
|  5>     print[ P_Basis ] 0
|  6>     print[ P_SCFInfo ] 1
|  7>     print[ P_SCFIterInfo ] 1
|  8>     print[ P_OrbEn ] 0
|  9>     print[ P_Cartesian ] 0
| 10> end
| 11> *xyz 0 1
| 12>  O        1.3416360000    -0.0093850000     0.5916780000
| 13>  C        2.3992480000    -0.1120350000     0.0212930000
| 14>  N        2.8437600000    -1.2591840000    -0.6086580000
| 15>  O        4.2347860000    -1.2525270000    -0.8024240000
| 16>  C        4.6079490000     0.1004420000    -0.7295560000
| 17>  C        3.9184100000     1.0612840000    -1.6201570000
| 18>  C        3.4667300000     0.9025080000    -0.1800690000
| 19>  H        2.5459410000    -2.1582610000    -0.2597780000
| 20>  H        5.6441150000     0.2148980000    -0.4425830000
| 21>  H        3.2704690000     0.6850380000    -2.4018530000
| 22>  H        4.4512210000     1.9746570000    -1.8513070000
| 23>  H        3.5440350000     1.7109670000     0.5319230000
| 24> *
| 25>
| 26>                          ****END OF INPUT****
 Total Charge           Charge          ....    0
 Multiplicity           Mult            ....    1
 Number of Electrons    NEL             ....   52
 Basis Dimension        Dim             ....  123

MULLIKEN ATOMIC CHARGES
-----------------------
   0 O :   -0.167215
   1 C :    0.181043
   2 N :   -0.012786
   3 O :   -0.257316
   4 C :    0.154853
   5 C :    0.021263
   6 C :   -0.241634
   7 H :    0.137017
   8 H :    0.038481
   9 H :    0.057926
  10 H :    0.047606
  11 H :    0.040761
Sum of atomic charges:   -0.0000000

LOEWDIN ATOMIC CHARGES
----------------------
   0 O :   -0.162430
   1 C :    0.014526
   2 N :    0.072140
   3 O :   -0.088998
   4 C :    0.053348
   5 C :   -0.037408
   6 C :   -0.074280
   7 H :    0.077244
   8 H :    0.028958
   9 H :    0.037934
  10 H :    0.039176
  11 H :    0.039788

  Mayer bond orders larger than 0.1
B(  0-O ,  1-C ) :   2.1599 B(  1-C ,  2-N ) :   1.0770 B(  1-C ,  6-C ) :   0.9539
B(  2-N ,  3-O ) :   0.9350 B(  2-N ,  7-H ) :   0.9313 B(  3-O ,  4-C ) :   0.9975
B(  4-C ,  5-C ) :   0.9981 B(  4-C ,  6-C ) :   0.8956 B(  4-C ,  8-H ) :   0.9543
B(  5-C ,  6-C ) :   0.9292 B(  5-C ,  9-H ) :   0.9272 B(  5-C , 10-H ) :   0.9395
B(  6-C , 11-H ) :   0.9530

FINAL SINGLE POINT ENERGY      -359.872272518567

DIPOLE MOMENT
-------------
                                X             Y             Z
Electronic contribution:     -2.02167      -2.72427       1.68682
Nuclear contribution   :      3.01610       2.82073      -1.93949
                        -----------------------------------------
Total Dipole Moment    :      0.99443       0.09646      -0.25267
                        -----------------------------------------
Magnitude (a.u.)       :      1.03056
Magnitude (Debye)      :      2.61946

                             ****ORCA TERMINATED NORMALLY****
TOTAL RUN TIME: 0 days 0 hours 0 minutes 6 seconds 102 msec
