                         Program Version 3.0.3 - RELEASE   -
|  1> ! RI PBE def2-SVP def2-SVP/J NBO PAL2
|  2> % maxcore 2000
|  3> % output
|  4>     # printlevel mini
|  5>     print[ P_Basis ] 0
|  6>     print[ P_SCFInfo ] 1
|  7>     print[ P_SCFIterInfo ] 1
|  8>     print[ P_OrbEn ] 0
|  9>     print[ P_Cartesian ] 0
| 10> end
| 11> *xyz 0 1
| 12>  O        0.8947920000     0.1405090000    -0.2996160000
| 13>  C        2.0930920000     0.0900700000    -0.1292990000
| 14>  N        2.8820590000     1.2194100000    -0.2270750000
| 15>  O        4.0984570000     1.2024690000     0.4726590000
| 16>  C        4.9028370000     0.1739850000    -0.0584990000
| 17>  C        4.1894460000    -1.1348170000     0.0202770000
| 18>  C        2.8595700000    -1.1588190000     0.0430040000
| 19>  H        2.4118170000     2.0962380000    -0.0515140000
| 20>  H        5.8057040000     0.1737620000     0.5552690000
| 21>  H        5.1889420000     0.3999310000    -1.0983490000
| 22>  H        4.7763940000    -2.0477810000     0.0481620000
| 23>  H        2.2792800000    -2.0699560000     0.1113910000
| 24> *
| 25>
| 26>                          ****END OF INPUT****
 Total Charge           Charge          ....    0
 Multiplicity           Mult            ....    1
 Number of Electrons    NEL             ....   52
 Basis Dimension        Dim             ....  123

MULLIKEN ATOMIC CHARGES
-----------------------
   0 O :   -0.179487
   1 C :    0.076108
   2 N :    0.006942
   3 O :   -0.292635
   4 C :    0.264970
   5 C :   -0.083753
   6 C :   -0.013510
   7 H :    0.128793
   8 H :    0.039277
   9 H :    0.027203
  10 H :    0.018995
  11 H :    0.007096
Sum of atomic charges:    0.0000000

LOEWDIN ATOMIC CHARGES
----------------------
   0 O :   -0.159486
   1 C :    0.006723
   2 N :    0.066634
   3 O :   -0.105953
   4 C :    0.054606
   5 C :   -0.015366
   6 C :   -0.055486
   7 H :    0.072302
   8 H :    0.038523
   9 H :    0.022314
  10 H :    0.034074
  11 H :    0.041113

  Mayer bond orders larger than 0.1
B(  0-O ,  1-C ) :   2.0945 B(  1-C ,  2-N ) :   1.1168 B(  1-C ,  6-C ) :   1.0031
B(  2-N ,  3-O ) :   0.9139 B(  2-N ,  7-H ) :   0.9217 B(  3-O ,  4-C ) :   0.9971
B(  4-C ,  5-C ) :   1.0294 B(  4-C ,  8-H ) :   0.9287 B(  4-C ,  9-H ) :   0.9050
B(  5-C ,  6-C ) :   1.8219 B(  5-C , 10-H ) :   0.9511 B(  6-C , 11-H ) :   0.9777

FINAL SINGLE POINT ENERGY      -359.883488626436

DIPOLE MOMENT
-------------
                                X             Y             Z
Electronic contribution:     -3.26759       1.74485       0.36906
Nuclear contribution   :      4.52186      -1.93886      -0.29494
                        -----------------------------------------
Total Dipole Moment    :      1.25427      -0.19401       0.07412
                        -----------------------------------------
Magnitude (a.u.)       :      1.27135
Magnitude (Debye)      :      3.23151

                             ****ORCA TERMINATED NORMALLY****
TOTAL RUN TIME: 0 days 0 hours 0 minutes 6 seconds 28 msec
