                         Program Version 3.0.3 - RELEASE   -
|  1> ! RI PBE def2-SVP def2-SVP/J NBO PAL2
|  2> % maxcore 2000
|  3> % output
|  4>     # printlevel mini
|  5>     print[ P_Basis ] 0
|  6>     print[ P_SCFInfo ] 1
|  7>     print[ P_SCFIterInfo ] 1
|  8>     print[ P_OrbEn ] 0
|  9>     print[ P_Cartesian ] 0
| 10> end
| 11> *xyz 0 1
| 12>  O        1.4439140000     0.3670650000     0.5220550000
| 13>  C        2.4279240000     0.0482040000    -0.0589040000
| 14>  O        2.5192570000    -1.0962580000    -0.7852240000
| 15>  C        3.8270590000    -1.2614670000    -1.3167980000
| 16>  C        4.5250480000     0.0395680000    -1.0063790000
| 17>  C        3.8914500000     1.2803920000    -1.4696970000
| 18>  N        3.6493930000     0.7797020000    -0.1022260000
| 19>  H        3.7474810000    -1.4841410000    -2.3830700000
| 20>  H        4.3124170000    -2.1004260000    -0.8115710000
| 21>  H        5.5775110000     0.0202700000    -0.7503870000
| 22>  H        3.0726380000     1.2075450000    -2.1794930000
| 23>  H        4.4620070000     2.2000560000    -1.5076160000
| 24> *
| 25>
| 26>                          ****END OF INPUT****
 Total Charge           Charge          ....    0
 Multiplicity           Mult            ....    1
 Number of Electrons    NEL             ....   52
 Basis Dimension        Dim             ....  123

MULLIKEN ATOMIC CHARGES
-----------------------
   0 O :   -0.123616
   1 C :    0.164348
   2 O :   -0.258035
   3 C :    0.279915
   4 C :   -0.151255
   5 C :    0.091555
   6 N :   -0.239991
   7 H :    0.040264
   8 H :    0.037110
   9 H :    0.048553
  10 H :    0.055674
  11 H :    0.055477
Sum of atomic charges:   -0.0000000

LOEWDIN ATOMIC CHARGES
----------------------
   0 O :   -0.111602
   1 C :    0.031854
   2 O :   -0.072277
   3 C :    0.076988
   4 C :   -0.012961
   5 C :    0.037392
   6 N :   -0.100541
   7 H :    0.029100
   8 H :    0.028418
   9 H :    0.032124
  10 H :    0.027864
  11 H :    0.033641

  Mayer bond orders larger than 0.1
B(  0-O ,  1-C ) :   2.2215 B(  1-C ,  2-O ) :   1.0974 B(  1-C ,  6-N ) :   1.0030
B(  2-O ,  3-C ) :   0.9808 B(  3-C ,  4-C ) :   1.0441 B(  3-C ,  7-H ) :   0.9340
B(  3-C ,  8-H ) :   0.9360 B(  4-C ,  5-C ) :   1.0423 B(  4-C ,  6-N ) :   0.9252
B(  4-C ,  9-H ) :   0.9391 B(  5-C ,  6-N ) :   0.9383 B(  5-C , 10-H ) :   0.9270
B(  5-C , 11-H ) :   0.9482

FINAL SINGLE POINT ENERGY      -359.920712599621

DIPOLE MOMENT
-------------
                                X             Y             Z
Electronic contribution:     -3.61835      -0.12004       3.12365
Nuclear contribution   :      5.05722      -0.17155      -4.32221
                        -----------------------------------------
Total Dipole Moment    :      1.43888      -0.29159      -1.19856
                        -----------------------------------------
Magnitude (a.u.)       :      1.89524
Magnitude (Debye)      :      4.81732

                             ****ORCA TERMINATED NORMALLY****
TOTAL RUN TIME: 0 days 0 hours 0 minutes 6 seconds 139 msec
