                         Program Version 3.0.3 - RELEASE   -
|  1> ! RI PBE def2-SVP def2-SVP/J NBO PAL2
|  2> % maxcore 2000
|  3> % output
|  4>     # printlevel mini
|  5>     print[ P_Basis ] 0
|  6>     print[ P_SCFInfo ] 1
|  7>     print[ P_SCFIterInfo ] 1
|  8>     print[ P_OrbEn ] 0
|  9>     print[ P_Cartesian ] 0
| 10> end
| 11> *xyz 0 1
| 12>  O        1.1852830000     0.0778790000     0.5346560000
| 13>  C        2.1981490000    -0.0744780000    -0.0741690000
| 14>  O        2.4384750000    -1.1845400000    -0.8257510000
| 15>  C        3.8108560000    -1.2585900000    -1.2111130000
| 16>  C        4.3957370000     0.1039820000    -0.9439240000
| 17>  N        3.7216510000     1.2244730000    -1.5518580000
| 18>  C        3.3672130000     0.8468960000    -0.1836450000
| 19>  H        3.8538430000    -1.5483590000    -2.2641720000
| 20>  H        4.3048440000    -2.0276870000    -0.6107630000
| 21>  H        5.4589110000     0.2098400000    -0.7657230000
| 22>  H        3.0105170000     0.9277470000    -2.2149490000
| 23>  H        3.5430110000     1.5729270000     0.5980110000
| 24> *
| 25>
| 26>                          ****END OF INPUT****
 Total Charge           Charge          ....    0
 Multiplicity           Mult            ....    1
 Number of Electrons    NEL             ....   52
 Basis Dimension        Dim             ....  123

MULLIKEN ATOMIC CHARGES
-----------------------
   0 O :   -0.129786
   1 C :    0.190124
   2 O :   -0.262812
   3 C :    0.277845
   4 C :   -0.120815
   5 N :   -0.113179
   6 C :   -0.126602
   7 H :    0.038739
   8 H :    0.040075
   9 H :    0.046677
  10 H :    0.117026
  11 H :    0.042708
Sum of atomic charges:    0.0000000

LOEWDIN ATOMIC CHARGES
----------------------
   0 O :   -0.114063
   1 C :    0.025741
   2 O :   -0.076304
   3 C :    0.074676
   4 C :   -0.013287
   5 N :   -0.054857
   6 C :   -0.023437
   7 H :    0.028746
   8 H :    0.030027
   9 H :    0.031235
  10 H :    0.056942
  11 H :    0.034580

  Mayer bond orders larger than 0.1
B(  0-O ,  1-C ) :   2.1979 B(  1-C ,  2-O ) :   1.1011 B(  1-C ,  6-C ) :   0.9176
B(  2-O ,  3-C ) :   0.9749 B(  3-C ,  4-C ) :   1.0323 B(  3-C ,  7-H ) :   0.9271
B(  3-C ,  8-H ) :   0.9273 B(  4-C ,  5-N ) :   1.0105 B(  4-C ,  6-C ) :   0.9471
B(  4-C ,  9-H ) :   0.9350 B(  5-N ,  6-C ) :   0.9821 B(  5-N , 10-H ) :   0.9428
B(  6-C , 11-H ) :   0.9651

FINAL SINGLE POINT ENERGY      -359.921374233338

DIPOLE MOMENT
-------------
                                X             Y             Z
Electronic contribution:     -3.62784       0.17444       1.56216
Nuclear contribution   :      4.88769      -0.53466      -2.05158
                        -----------------------------------------
Total Dipole Moment    :      1.25985      -0.36022      -0.48943
                        -----------------------------------------
Magnitude (a.u.)       :      1.39876
Magnitude (Debye)      :      3.55536

                             ****ORCA TERMINATED NORMALLY****
TOTAL RUN TIME: 0 days 0 hours 0 minutes 6 seconds 137 msec
