                         Program Version 3.0.3 - RELEASE   -
|  1> ! RI PBE def2-SVP def2-SVP/J NBO PAL2
|  2> % maxcore 2000
|  3> % output
|  4>     # printlevel mini
|  5>     print[ P_Basis ] 0
|  6>     print[ P_SCFInfo ] 1
|  7>     print[ P_SCFIterInfo ] 1
|  8>     print[ P_OrbEn ] 0
|  9>     print[ P_Cartesian ] 0
| 10> end
| 11> *xyz 0 1
| 12>  O        2.1931070000    -0.8395980000     0.4152960000
| 13>  C        2.1687320000     0.2584570000    -0.0629920000
| 14>  C        3.3241870000     1.1781990000    -0.1080150000
| 15>  C        3.4583070000     2.0824920000    -1.2982250000
| 16>  C        3.0100510000     2.6633350000     0.0017480000
| 17>  C        3.8986210000     3.4882270000     0.7619630000
| 18>  N        4.6166620000     4.1525860000     1.3674920000
| 19>  H        1.2402550000     0.6652160000    -0.5273920000
| 20>  H        4.2271060000     0.8240580000     0.3726130000
| 21>  H        2.7114960000     2.0069660000    -2.0792520000
| 22>  H        4.4618850000     2.3052290000    -1.6334790000
| 23>  H        1.9626910000     2.9315320000     0.0922440000
| 24> *
| 25>
| 26>                          ****END OF INPUT****
 Total Charge           Charge          ....    0
 Multiplicity           Mult            ....    1
 Number of Electrons    NEL             ....   50
 Basis Dimension        Dim             ....  123

MULLIKEN ATOMIC CHARGES
-----------------------
   0 O :   -0.141087
   1 C :    0.173042
   2 C :   -0.099901
   3 C :    0.052320
   4 C :   -0.198238
   5 C :   -0.099542
   6 N :    0.077470
   7 H :   -0.022407
   8 H :    0.055824
   9 H :    0.060716
  10 H :    0.064475
  11 H :    0.077329
Sum of atomic charges:    0.0000000

LOEWDIN ATOMIC CHARGES
----------------------
   0 O :   -0.093210
   1 C :    0.088042
   2 C :   -0.044957
   3 C :    0.008703
   4 C :   -0.048160
   5 C :   -0.037143
   6 N :   -0.053123
   7 H :   -0.011541
   8 H :    0.048560
   9 H :    0.039724
  10 H :    0.047852
  11 H :    0.055253

  Mayer bond orders larger than 0.1
B(  0-O ,  1-C ) :   2.1842 B(  1-C ,  2-C ) :   0.9987 B(  1-C ,  7-H ) :   0.9182
B(  2-C ,  3-C ) :   0.9287 B(  2-C ,  4-C ) :   0.8606 B(  2-C ,  8-H ) :   0.9441
B(  3-C ,  4-C ) :   0.9969 B(  3-C ,  9-H ) :   0.9410 B(  3-C , 10-H ) :   0.9370
B(  4-C ,  5-C ) :   1.1592 B(  4-C , 11-H ) :   0.9111 B(  5-C ,  6-N ) :   3.0286

FINAL SINGLE POINT ENERGY      -322.829963707435

DIPOLE MOMENT
-------------
                                X             Y             Z
Electronic contribution:      0.77932       0.20369       3.02319
Nuclear contribution   :     -1.34919      -0.20269      -4.19792
                        -----------------------------------------
Total Dipole Moment    :     -0.56987       0.00100      -1.17473
                        -----------------------------------------
Magnitude (a.u.)       :      1.30566
Magnitude (Debye)      :      3.31873

                             ****ORCA TERMINATED NORMALLY****
TOTAL RUN TIME: 0 days 0 hours 0 minutes 6 seconds 82 msec
