                         Program Version 3.0.3 - RELEASE   -
|  1> ! RI PBE def2-SVP def2-SVP/J NBO PAL2
|  2> % maxcore 2000
|  3> % output
|  4>     # printlevel mini
|  5>     print[ P_Basis ] 0
|  6>     print[ P_SCFInfo ] 1
|  7>     print[ P_SCFIterInfo ] 1
|  8>     print[ P_OrbEn ] 0
|  9>     print[ P_Cartesian ] 0
| 10> end
| 11> *xyz 0 1
| 12>  O        1.0559500000     0.1421510000    -0.0874930000
| 13>  C        2.4573780000    -0.0103610000    -0.0812380000
| 14>  C        2.9835870000     0.4718010000     1.2320130000
| 15>  C        4.3624120000     1.0251920000     1.3195310000
| 16>  C        3.1786420000     1.9559770000     1.4244330000
| 17>  C        2.8680210000     2.5486360000     2.6889470000
| 18>  N        2.6266440000     3.0201530000     3.7109750000
| 19>  H        0.7050560000    -0.2487450000    -0.8909460000
| 20>  H        2.9262060000     0.5661590000    -0.8931400000
| 21>  H        2.7435130000    -1.0628310000    -0.2161410000
| 22>  H        2.6149200000    -0.0652350000     2.0986370000
| 23>  H        4.9492400000     1.0950480000     0.4117160000
| 24>  H        4.9317730000     0.8437210000     2.2210560000
| 25>  H        2.9642780000     2.5887250000     0.5708280000
| 26> *
| 27>
| 28>                          ****END OF INPUT****
 Total Charge           Charge          ....    0
 Multiplicity           Mult            ....    1
 Number of Electrons    NEL             ....   52
 Basis Dimension        Dim             ....  133

MULLIKEN ATOMIC CHARGES
-----------------------
   0 O :   -0.270979
   1 C :    0.238681
   2 C :   -0.137436
   3 C :    0.044981
   4 C :   -0.179893
   5 C :   -0.111557
   6 N :    0.056622
   7 H :    0.158874
   8 H :   -0.016028
   9 H :    0.008974
  10 H :    0.050077
  11 H :    0.040602
  12 H :    0.052679
  13 H :    0.064401
Sum of atomic charges:    0.0000000

LOEWDIN ATOMIC CHARGES
----------------------
   0 O :   -0.122976
   1 C :    0.063826
   2 C :   -0.023460
   3 C :   -0.008862
   4 C :   -0.060441
   5 C :   -0.037504
   6 N :   -0.070954
   7 H :    0.073750
   8 H :    0.004916
   9 H :    0.013094
  10 H :    0.041193
  11 H :    0.033619
  12 H :    0.040373
  13 H :    0.053428

  Mayer bond orders larger than 0.1
B(  0-O ,  1-C ) :   1.1144 B(  0-O ,  7-H ) :   0.9768 B(  1-C ,  2-C ) :   1.0764
B(  1-C ,  8-H ) :   0.9095 B(  1-C ,  9-H ) :   0.9232 B(  2-C ,  3-C ) :   0.9803
B(  2-C ,  4-C ) :   0.9247 B(  2-C , 10-H ) :   0.9376 B(  3-C ,  4-C ) :   0.9975
B(  3-C , 11-H ) :   0.9348 B(  3-C , 12-H ) :   0.9368 B(  4-C ,  5-C ) :   1.1534
B(  4-C , 13-H ) :   0.9072 B(  5-C ,  6-N ) :   3.0252

FINAL SINGLE POINT ENERGY      -324.023593003748

DIPOLE MOMENT
-------------
                                X             Y             Z
Electronic contribution:     -1.93771       3.53726       4.11852
Nuclear contribution   :      2.46739      -4.65325      -5.90347
                        -----------------------------------------
Total Dipole Moment    :      0.52967      -1.11599      -1.78495
                        -----------------------------------------
Magnitude (a.u.)       :      2.17072
Magnitude (Debye)      :      5.51753

                             ****ORCA TERMINATED NORMALLY****
TOTAL RUN TIME: 0 days 0 hours 0 minutes 6 seconds 547 msec
