                         Program Version 3.0.3 - RELEASE   -
|  1> ! RI PBE def2-SVP def2-SVP/J NBO PAL2
|  2> % maxcore 2000
|  3> % output
|  4>     # printlevel mini
|  5>     print[ P_Basis ] 0
|  6>     print[ P_SCFInfo ] 1
|  7>     print[ P_SCFIterInfo ] 1
|  8>     print[ P_OrbEn ] 0
|  9>     print[ P_Cartesian ] 0
| 10> end
| 11> *xyz 0 1
| 12>  O        1.1530300000    -0.3506550000     0.1343000000
| 13>  C        2.5599950000    -0.3235020000    -0.0137050000
| 14>  C        2.8873440000    -0.6563800000    -1.4579830000
| 15>  C        4.4112100000    -0.7055510000    -1.6840190000
| 16>  C        4.6979740000    -2.1363350000    -2.1571000000
| 17>  C        3.5000960000    -2.9154300000    -1.6372990000
| 18>  N        2.4184040000    -1.9761920000    -1.8662070000
| 19>  H        0.9350570000    -0.2243090000     1.0598330000
| 20>  H        3.0391320000    -1.0583790000     0.6503210000
| 21>  H        2.9654040000     0.6686940000     0.2320730000
| 22>  H        2.4072250000     0.1039030000    -2.0841060000
| 23>  H        4.9366420000    -0.4969620000    -0.7467040000
| 24>  H        4.7417150000     0.0417450000    -2.4060490000
| 25>  H        5.6515550000    -2.5221590000    -1.7927750000
| 26>  H        4.7087370000    -2.1793860000    -3.2484280000
| 27>  H        3.6526130000    -3.1741540000    -0.5747930000
| 28>  H        3.3263830000    -3.8476010000    -2.1809700000
| 29>  H        1.5521750000    -2.2188590000    -1.4027890000
| 30> *
| 31>
| 32>                          ****END OF INPUT****
 Total Charge           Charge          ....    0
 Multiplicity           Mult            ....    1
 Number of Electrons    NEL             ....   56
 Basis Dimension        Dim             ....  153

MULLIKEN ATOMIC CHARGES
-----------------------
   0 O :   -0.275576
   1 C :    0.176848
   2 C :   -0.047240
   3 C :    0.038349
   4 C :   -0.029111
   5 C :    0.117246
   6 N :   -0.238738
   7 H :    0.155688
   8 H :   -0.011987
   9 H :   -0.006825
  10 H :   -0.001108
  11 H :   -0.002006
  12 H :    0.013124
  13 H :    0.003976
  14 H :    0.023537
  15 H :   -0.014704
  16 H :    0.005586
  17 H :    0.092941
Sum of atomic charges:   -0.0000000

LOEWDIN ATOMIC CHARGES
----------------------
   0 O :   -0.127085
   1 C :    0.038279
   2 C :   -0.004383
   3 C :   -0.035783
   4 C :   -0.042383
   5 C :    0.013346
   6 N :   -0.095026
   7 H :    0.071314
   8 H :    0.000252
   9 H :    0.003201
  10 H :    0.018166
  11 H :    0.022830
  12 H :    0.028424
  13 H :    0.021949
  14 H :    0.028415
  15 H :   -0.006931
  16 H :    0.017120
  17 H :    0.048295

  Mayer bond orders larger than 0.1
B(  0-O ,  1-C ) :   1.0872 B(  0-O ,  7-H ) :   0.9779 B(  1-C ,  2-C ) :   1.0461
B(  1-C ,  8-H ) :   0.9170 B(  1-C ,  9-H ) :   0.9211 B(  2-C ,  3-C ) :   1.0619
B(  2-C ,  6-N ) :   1.1128 B(  2-C , 10-H ) :   0.9007 B(  3-C ,  4-C ) :   1.1429
B(  3-C , 11-H ) :   0.9217 B(  3-C , 12-H ) :   0.9242 B(  4-C ,  5-C ) :   1.1109
B(  4-C , 13-H ) :   0.9354 B(  4-C , 14-H ) :   0.9243 B(  5-C ,  6-N ) :   1.0277
B(  5-C , 15-H ) :   0.9140 B(  5-C , 16-H ) :   0.9383 B(  6-N , 17-H ) :   0.9374

FINAL SINGLE POINT ENERGY      -326.452076879806

DIPOLE MOMENT
-------------
                                X             Y             Z
Electronic contribution:     -3.90093       0.86251       0.25358
Nuclear contribution   :      4.17601      -0.79020       0.54358
                        -----------------------------------------
Total Dipole Moment    :      0.27508       0.07231       0.79716
                        -----------------------------------------
Magnitude (a.u.)       :      0.84638
Magnitude (Debye)      :      2.15132

                             ****ORCA TERMINATED NORMALLY****
TOTAL RUN TIME: 0 days 0 hours 0 minutes 8 seconds 90 msec
