                         Program Version 3.0.3 - RELEASE   -
|  1> ! RI PBE def2-SVP def2-SVP/J NBO PAL2
|  2> % maxcore 2000
|  3> % output
|  4>     # printlevel mini
|  5>     print[ P_Basis ] 0
|  6>     print[ P_SCFInfo ] 1
|  7>     print[ P_SCFIterInfo ] 1
|  8>     print[ P_OrbEn ] 0
|  9>     print[ P_Cartesian ] 0
| 10> end
| 11> *xyz 0 1
| 12>  O        2.1822680000     0.5394040000     1.2493820000
| 13>  C        1.9243350000    -0.3105820000     0.4452940000
| 14>  C        2.9259780000    -1.2381940000    -0.2081530000
| 15>  C        4.1480370000    -1.5013250000     0.6710930000
| 16>  C        3.7569350000    -2.7690360000     1.4215100000
| 17>  C        3.0028310000    -3.5514160000     0.3525720000
| 18>  N        2.3291370000    -2.5489520000    -0.4786590000
| 19>  H        0.8712420000    -0.4689970000     0.1100630000
| 20>  H        3.2170040000    -0.7428890000    -1.1472410000
| 21>  H        4.3545030000    -0.6476840000     1.3171520000
| 22>  H        5.0260860000    -1.6822000000     0.0462460000
| 23>  H        3.0897820000    -2.5202780000     2.2530640000
| 24>  H        4.6134440000    -3.3099800000     1.8272310000
| 25>  H        2.2830450000    -4.2634000000     0.7621250000
| 26>  H        3.7092710000    -4.1215580000    -0.2624430000
| 27>  H        1.3308020000    -2.5402220000    -0.3154350000
| 28> *
| 29>
| 30>                          ****END OF INPUT****
 Total Charge           Charge          ....    0
 Multiplicity           Mult            ....    1
 Number of Electrons    NEL             ....   54
 Basis Dimension        Dim             ....  143

MULLIKEN ATOMIC CHARGES
-----------------------
   0 O :   -0.147823
   1 C :    0.095656
   2 C :    0.004130
   3 C :    0.005383
   4 C :   -0.034981
   5 C :    0.107381
   6 N :   -0.250262
   7 H :   -0.008874
   8 H :    0.031043
   9 H :    0.029538
  10 H :    0.016290
  11 H :    0.016929
  12 H :    0.019086
  13 H :    0.011413
  14 H :    0.011991
  15 H :    0.093100
Sum of atomic charges:   -0.0000000

LOEWDIN ATOMIC CHARGES
----------------------
   0 O :   -0.095512
   1 C :    0.081990
   2 C :   -0.034238
   3 C :   -0.037336
   4 C :   -0.050212
   5 C :    0.017419
   6 N :   -0.097178
   7 H :   -0.014163
   8 H :    0.036693
   9 H :    0.029706
  10 H :    0.028622
  11 H :    0.025114
  12 H :    0.027431
  13 H :    0.019737
  14 H :    0.014814
  15 H :    0.047114

  Mayer bond orders larger than 0.1
B(  0-O ,  1-C ) :   2.1913 B(  1-C ,  2-C ) :   0.9089 B(  1-C ,  7-H ) :   0.9194
B(  2-C ,  3-C ) :   1.0671 B(  2-C ,  6-N ) :   1.0680 B(  2-C ,  8-H ) :   0.8688
B(  3-C ,  4-C ) :   1.0913 B(  3-C ,  9-H ) :   0.9252 B(  3-C , 10-H ) :   0.9262
B(  4-C ,  5-C ) :   1.0812 B(  4-C , 11-H ) :   0.9331 B(  4-C , 12-H ) :   0.9375
B(  5-C ,  6-N ) :   1.0628 B(  5-C , 13-H ) :   0.9435 B(  5-C , 14-H ) :   0.9385
B(  6-N , 15-H ) :   0.9449

FINAL SINGLE POINT ENERGY      -325.253791659434

DIPOLE MOMENT
-------------
                                X             Y             Z
Electronic contribution:     -2.46759       4.76694      -0.17232
Nuclear contribution   :      2.40013      -5.38072       0.04281
                        -----------------------------------------
Total Dipole Moment    :     -0.06746      -0.61378      -0.12951
                        -----------------------------------------
Magnitude (a.u.)       :      0.63091
Magnitude (Debye)      :      1.60365

                             ****ORCA TERMINATED NORMALLY****
TOTAL RUN TIME: 0 days 0 hours 0 minutes 7 seconds 96 msec
