                         Program Version 3.0.3 - RELEASE   -
|  1> ! RI PBE def2-SVP def2-SVP/J NBO PAL2
|  2> % maxcore 2000
|  3> % output
|  4>     # printlevel mini
|  5>     print[ P_Basis ] 0
|  6>     print[ P_SCFInfo ] 1
|  7>     print[ P_SCFIterInfo ] 1
|  8>     print[ P_OrbEn ] 0
|  9>     print[ P_Cartesian ] 0
| 10> end
| 11> *xyz 0 1
| 12>  O        0.8783600000     0.0888730000    -0.0929590000
| 13>  C        2.2058590000     0.0569640000    -0.0496740000
| 14>  C        2.9048350000    -0.2739420000     1.0571070000
| 15>  C        4.3495350000    -0.3168580000     1.1324460000
| 16>  C        4.6342960000    -0.6892460000     2.4032790000
| 17>  C        3.3529630000    -0.8595630000     3.0555740000
| 18>  N        2.3379310000    -0.6194880000     2.2781440000
| 19>  H        0.5807420000     0.3471410000    -0.9692570000
| 20>  H        2.7392950000     0.3135430000    -0.9620100000
| 21>  H        5.0387620000    -0.0944190000     0.3300730000
| 22>  H        5.6074820000    -0.8329100000     2.8500850000
| 23>  H        3.2037390000    -1.1566850000     4.0884910000
| 24> *
| 25>
| 26>                          ****END OF INPUT****
 Total Charge           Charge          ....    0
 Multiplicity           Mult            ....    1
 Number of Electrons    NEL             ....   50
 Basis Dimension        Dim             ....  123

MULLIKEN ATOMIC CHARGES
-----------------------
   0 O :   -0.083801
   1 C :    0.056558
   2 C :    0.008568
   3 C :    0.003823
   4 C :   -0.019436
   5 C :    0.040089
   6 N :   -0.129971
   7 H :    0.186543
   8 H :   -0.001027
   9 H :   -0.026294
  10 H :   -0.022966
  11 H :   -0.012086
Sum of atomic charges:   -0.0000000

LOEWDIN ATOMIC CHARGES
----------------------
   0 O :    0.038256
   1 C :    0.078145
   2 C :   -0.071539
   3 C :   -0.044496
   4 C :   -0.072904
   5 C :    0.004581
   6 N :   -0.108062
   7 H :    0.099295
   8 H :    0.020903
   9 H :    0.021488
  10 H :    0.021769
  11 H :    0.012564

  Mayer bond orders larger than 0.1
B(  0-O ,  1-C ) :   1.3269 B(  0-O ,  7-H ) :   0.9582 B(  1-C ,  2-C ) :   1.5610
B(  1-C ,  5-C ) :   0.1005 B(  1-C ,  8-H ) :   0.9341 B(  2-C ,  3-C ) :   1.0795
B(  2-C ,  6-N ) :   1.2542 B(  3-C ,  4-C ) :   1.5821 B(  3-C ,  9-H ) :   0.9957
B(  4-C ,  5-C ) :   1.0948 B(  4-C , 10-H ) :   0.9940 B(  5-C ,  6-N ) :   1.7132
B(  5-C , 11-H ) :   0.9791

FINAL SINGLE POINT ENERGY      -322.845095445725

DIPOLE MOMENT
-------------
                                X             Y             Z
Electronic contribution:     -2.48056       0.09971      -0.22087
Nuclear contribution   :      2.57715       0.33225      -1.27636
                        -----------------------------------------
Total Dipole Moment    :      0.09659       0.43196      -1.49723
                        -----------------------------------------
Magnitude (a.u.)       :      1.56129
Magnitude (Debye)      :      3.96848

                             ****ORCA TERMINATED NORMALLY****
TOTAL RUN TIME: 0 days 0 hours 0 minutes 6 seconds 531 msec
