                         Program Version 3.0.3 - RELEASE   -
|  1> ! RI PBE def2-SVP def2-SVP/J NBO PAL2
|  2> % maxcore 2000
|  3> % output
|  4>     # printlevel mini
|  5>     print[ P_Basis ] 0
|  6>     print[ P_SCFInfo ] 1
|  7>     print[ P_SCFIterInfo ] 1
|  8>     print[ P_OrbEn ] 0
|  9>     print[ P_Cartesian ] 0
| 10> end
| 11> *xyz 0 1
| 12>  O        1.9445550000    -0.9465150000     0.6276140000
| 13>  C        2.3157430000     0.2028960000    -0.1196170000
| 14>  C        2.9242690000    -0.2382910000    -1.3979730000
| 15>  C        3.9540120000     0.2803960000    -2.1443280000
| 16>  C        4.0651030000    -0.5057580000    -3.3181360000
| 17>  C        3.1068750000    -1.4837020000    -3.2443030000
| 18>  N        2.4146820000    -1.2994160000    -2.0844680000
| 19>  H        1.3897410000    -0.6654800000     1.3587680000
| 20>  H        3.0406540000     0.8221540000     0.4220320000
| 21>  H        1.4270770000     0.8231040000    -0.3114260000
| 22>  H        4.5564070000     1.1352480000    -1.8769220000
| 23>  H        4.7736260000    -0.3749940000    -4.1209250000
| 24>  H        2.8743140000    -2.2969390000    -3.9127530000
| 25>  H        1.7151550000    -1.9135140000    -1.7066520000
| 26> *
| 27>
| 28>                          ****END OF INPUT****
 Total Charge           Charge          ....    0
 Multiplicity           Mult            ....    1
 Number of Electrons    NEL             ....   52
 Basis Dimension        Dim             ....  133

MULLIKEN ATOMIC CHARGES
-----------------------
   0 O :   -0.282529
   1 C :    0.242386
   2 C :   -0.084012
   3 C :   -0.053006
   4 C :   -0.028138
   5 C :    0.039179
   6 N :   -0.037179
   7 H :    0.155834
   8 H :   -0.002628
   9 H :    0.013613
  10 H :   -0.037766
  11 H :   -0.022387
  12 H :   -0.010739
  13 H :    0.107371
Sum of atomic charges:   -0.0000000

LOEWDIN ATOMIC CHARGES
----------------------
   0 O :   -0.132662
   1 C :    0.057112
   2 C :   -0.056989
   3 C :   -0.089012
   4 C :   -0.087405
   5 C :   -0.039571
   6 N :    0.109638
   7 H :    0.070728
   8 H :    0.016808
   9 H :    0.013220
  10 H :    0.020271
  11 H :    0.022274
  12 H :    0.016606
  13 H :    0.078981

  Mayer bond orders larger than 0.1
B(  0-O ,  1-C ) :   1.1031 B(  0-O ,  7-H ) :   0.9735 B(  1-C ,  2-C ) :   1.0581
B(  1-C ,  8-H ) :   0.9116 B(  1-C ,  9-H ) :   0.9132 B(  2-C ,  3-C ) :   1.4796
B(  2-C ,  5-C ) :   0.1042 B(  2-C ,  6-N ) :   1.2526 B(  3-C ,  4-C ) :   1.2989
B(  3-C , 10-H ) :   1.0084 B(  4-C ,  5-C ) :   1.4726 B(  4-C , 11-H ) :   1.0005
B(  5-C ,  6-N ) :   1.2188 B(  5-C , 12-H ) :   0.9864 B(  6-N , 13-H ) :   0.9336

FINAL SINGLE POINT ENERGY      -324.069704727618

DIPOLE MOMENT
-------------
                                X             Y             Z
Electronic contribution:     -0.30575      -1.45713      -0.28210
Nuclear contribution   :     -0.49402       1.51307       0.80047
                        -----------------------------------------
Total Dipole Moment    :     -0.79977       0.05594       0.51837
                        -----------------------------------------
Magnitude (a.u.)       :      0.95471
Magnitude (Debye)      :      2.42668

                             ****ORCA TERMINATED NORMALLY****
TOTAL RUN TIME: 0 days 0 hours 0 minutes 6 seconds 461 msec
