                         Program Version 3.0.3 - RELEASE   -
|  1> ! RI PBE def2-SVP def2-SVP/J NBO PAL2
|  2> % maxcore 2000
|  3> % output
|  4>     # printlevel mini
|  5>     print[ P_Basis ] 0
|  6>     print[ P_SCFInfo ] 1
|  7>     print[ P_SCFIterInfo ] 1
|  8>     print[ P_OrbEn ] 0
|  9>     print[ P_Cartesian ] 0
| 10> end
| 11> *xyz 0 1
| 12>  O        3.1200550000    -0.9428100000    -0.8245840000
| 13>  C        2.4780590000     0.0776190000    -0.0847530000
| 14>  C        2.8889840000    -0.0411840000     1.3609690000
| 15>  C        2.2497690000     0.9993650000     2.2742790000
| 16>  C        2.4536560000     0.3818740000     3.6524220000
| 17>  N        2.3895760000    -1.0675780000     3.4562560000
| 18>  C        2.4780400000    -1.3590200000     2.0205940000
| 19>  H        2.8569890000    -0.8677920000    -1.7441960000
| 20>  H        1.3832460000    -0.0151570000    -0.1565130000
| 21>  H        2.7536830000     1.0705380000    -0.4679620000
| 22>  H        3.9795450000     0.0586390000     1.4155030000
| 23>  H        1.1799460000     1.0822890000     2.0477300000
| 24>  H        2.6935850000     1.9926320000     2.1763310000
| 25>  H        1.7138940000     0.7160370000     4.3841920000
| 26>  H        3.4395890000     0.6638900000     4.0431560000
| 27>  H        1.5458460000    -1.4514640000     3.8518870000
| 28>  H        1.5131890000    -1.6864130000     1.6083010000
| 29>  H        3.2009410000    -2.1525660000     1.8179780000
| 30> *
| 31>
| 32>                          ****END OF INPUT****
 Total Charge           Charge          ....    0
 Multiplicity           Mult            ....    1
 Number of Electrons    NEL             ....   56
 Basis Dimension        Dim             ....  153

MULLIKEN ATOMIC CHARGES
-----------------------
   0 O :   -0.274346
   1 C :    0.213699
   2 C :   -0.243391
   3 C :   -0.004611
   4 C :    0.137140
   5 N :   -0.285599
   6 C :    0.190639
   7 H :    0.154646
   8 H :   -0.011261
   9 H :   -0.006981
  10 H :    0.024373
  11 H :   -0.000511
  12 H :    0.008790
  13 H :    0.002882
  14 H :    0.000816
  15 H :    0.093826
  16 H :   -0.014729
  17 H :    0.014619
Sum of atomic charges:   -0.0000000

LOEWDIN ATOMIC CHARGES
----------------------
   0 O :   -0.128391
   1 C :    0.059476
   2 C :   -0.060832
   3 C :   -0.044352
   4 C :    0.014714
   5 N :   -0.115459
   6 C :    0.023043
   7 H :    0.070640
   8 H :    0.000400
   9 H :    0.003267
  10 H :    0.031243
  11 H :    0.018758
  12 H :    0.022805
  13 H :    0.016238
  14 H :    0.011054
  15 H :    0.052122
  16 H :    0.006496
  17 H :    0.018779

  Mayer bond orders larger than 0.1
B(  0-O ,  1-C ) :   1.1100 B(  0-O ,  7-H ) :   0.9794 B(  1-C ,  2-C ) :   1.0709
B(  1-C ,  8-H ) :   0.9150 B(  1-C ,  9-H ) :   0.9318 B(  2-C ,  3-C ) :   1.0655
B(  2-C ,  6-C ) :   1.0334 B(  2-C , 10-H ) :   0.9049 B(  3-C ,  4-C ) :   1.0836
B(  3-C , 11-H ) :   0.9209 B(  3-C , 12-H ) :   0.9326 B(  4-C ,  5-N ) :   1.0695
B(  4-C , 13-H ) :   0.9411 B(  4-C , 14-H ) :   0.9334 B(  5-N ,  6-C ) :   1.0524
B(  5-N , 15-H ) :   0.9496 B(  6-C , 16-H ) :   0.9358 B(  6-C , 17-H ) :   0.9265

FINAL SINGLE POINT ENERGY      -326.446877969853

DIPOLE MOMENT
-------------
                                X             Y             Z
Electronic contribution:      1.26288      -2.01270      -1.40252
Nuclear contribution   :     -1.94219       2.48664       0.92907
                        -----------------------------------------
Total Dipole Moment    :     -0.67931       0.47393      -0.47345
                        -----------------------------------------
Magnitude (a.u.)       :      0.95406
Magnitude (Debye)      :      2.42502

                             ****ORCA TERMINATED NORMALLY****
TOTAL RUN TIME: 0 days 0 hours 0 minutes 8 seconds 63 msec
