                         Program Version 3.0.3 - RELEASE   -
|  1> ! RI PBE def2-SVP def2-SVP/J NBO PAL2
|  2> % maxcore 2000
|  3> % output
|  4>     # printlevel mini
|  5>     print[ P_Basis ] 0
|  6>     print[ P_SCFInfo ] 1
|  7>     print[ P_SCFIterInfo ] 1
|  8>     print[ P_OrbEn ] 0
|  9>     print[ P_Cartesian ] 0
| 10> end
| 11> *xyz 0 1
| 12>  O        2.2284330000     0.8013040000    -0.7146580000
| 13>  C        1.9255310000    -0.1233900000    -0.0124860000
| 14>  C        2.8526840000    -0.8909390000     0.8746390000
| 15>  C        2.3809500000    -0.8885190000     2.3369880000
| 16>  C        2.6743010000    -2.3166660000     2.8034080000
| 17>  N        2.4054070000    -3.1637990000     1.6537330000
| 18>  C        2.8602050000    -2.4076520000     0.4962660000
| 19>  H        0.8715850000    -0.4931210000     0.0105750000
| 20>  H        3.8501260000    -0.4599210000     0.7748790000
| 21>  H        1.3011120000    -0.7054510000     2.3870680000
| 22>  H        2.8734570000    -0.1148320000     2.9284070000
| 23>  H        2.0807710000    -2.6275250000     3.6648140000
| 24>  H        3.7310300000    -2.4113520000     3.0780330000
| 25>  H        1.4090730000    -3.3286590000     1.5853260000
| 26>  H        2.2351780000    -2.6295510000    -0.3731300000
| 27>  H        3.8817460000    -2.6970180000     0.2356590000
| 28> *
| 29>
| 30>                          ****END OF INPUT****
 Total Charge           Charge          ....    0
 Multiplicity           Mult            ....    1
 Number of Electrons    NEL             ....   54
 Basis Dimension        Dim             ....  143

MULLIKEN ATOMIC CHARGES
-----------------------
   0 O :   -0.155999
   1 C :    0.116936
   2 C :   -0.180924
   3 C :    0.027386
   4 C :    0.080678
   5 N :   -0.245227
   6 C :    0.169566
   7 H :   -0.029632
   8 H :    0.013744
   9 H :    0.009689
  10 H :    0.025889
  11 H :    0.019097
  12 H :    0.017257
  13 H :    0.099727
  14 H :    0.014538
  15 H :    0.017273
Sum of atomic charges:   -0.0000000

LOEWDIN ATOMIC CHARGES
----------------------
   0 O :   -0.108758
   1 C :    0.079159
   2 C :   -0.090491
   3 C :   -0.041607
   4 C :    0.011618
   5 N :   -0.088368
   6 C :    0.027281
   7 H :   -0.020370
   8 H :    0.031570
   9 H :    0.021125
  10 H :    0.031372
  11 H :    0.023200
  12 H :    0.020778
  13 H :    0.054452
  14 H :    0.022676
  15 H :    0.026363

  Mayer bond orders larger than 0.1
B(  0-O ,  1-C ) :   2.1835 B(  1-C ,  2-C ) :   0.9415 B(  1-C ,  7-H ) :   0.9111
B(  2-C ,  3-C ) :   1.0664 B(  2-C ,  6-C ) :   0.9774 B(  2-C ,  8-H ) :   0.9004
B(  3-C ,  4-C ) :   1.0616 B(  3-C ,  9-H ) :   0.9277 B(  3-C , 10-H ) :   0.9252
B(  4-C ,  5-N ) :   1.0818 B(  4-C , 11-H ) :   0.9459 B(  4-C , 12-H ) :   0.9333
B(  5-N ,  6-C ) :   1.0903 B(  5-N , 13-H ) :   0.9498 B(  6-C , 14-H ) :   0.9440
B(  6-C , 15-H ) :   0.9230

FINAL SINGLE POINT ENERGY      -325.254814528894

DIPOLE MOMENT
-------------
                                X             Y             Z
Electronic contribution:     -0.33170       3.12966      -3.79486
Nuclear contribution   :      0.05434      -3.70047       4.51068
                        -----------------------------------------
Total Dipole Moment    :     -0.27736      -0.57082       0.71583
                        -----------------------------------------
Magnitude (a.u.)       :      0.95664
Magnitude (Debye)      :      2.43159

                             ****ORCA TERMINATED NORMALLY****
TOTAL RUN TIME: 0 days 0 hours 0 minutes 7 seconds 52 msec
