                         Program Version 3.0.3 - RELEASE   -
|  1> ! RI PBE def2-SVP def2-SVP/J NBO PAL2
|  2> % maxcore 2000
|  3> % output
|  4>     # printlevel mini
|  5>     print[ P_Basis ] 0
|  6>     print[ P_SCFInfo ] 1
|  7>     print[ P_SCFIterInfo ] 1
|  8>     print[ P_OrbEn ] 0
|  9>     print[ P_Cartesian ] 0
| 10> end
| 11> *xyz 0 1
| 12>  O        2.5925680000     1.7977300000     0.8450130000
| 13>  C        2.5228890000     0.6728410000     1.2782820000
| 14>  C        2.1377110000    -0.4860700000     0.4828370000
| 15>  C        2.0958590000    -1.7412220000     0.9352650000
| 16>  C        1.7201820000    -2.6771360000    -0.1694030000
| 17>  N        1.3338040000    -1.8123060000    -1.2867510000
| 18>  C        1.7940330000    -0.4522590000    -0.9809360000
| 19>  H        2.7548240000     0.4561050000     2.3426530000
| 20>  H        2.3471510000    -2.0556520000     1.9421250000
| 21>  H        0.9140110000    -3.3644790000     0.1065150000
| 22>  H        2.5834930000    -3.3078520000    -0.4304620000
| 23>  H        0.3280170000    -1.8106830000    -1.3711820000
| 24>  H        1.0331550000     0.2952240000    -1.2180090000
| 25>  H        2.6826010000    -0.1891200000    -1.5685560000
| 26> *
| 27>
| 28>                          ****END OF INPUT****
 Total Charge           Charge          ....    0
 Multiplicity           Mult            ....    1
 Number of Electrons    NEL             ....   52
 Basis Dimension        Dim             ....  133

MULLIKEN ATOMIC CHARGES
-----------------------
   0 O :   -0.162864
   1 C :    0.136104
   2 C :   -0.157769
   3 C :   -0.105667
   4 C :    0.164790
   5 N :   -0.280425
   6 C :    0.207893
   7 H :   -0.034998
   8 H :    0.000831
   9 H :    0.028185
  10 H :    0.038973
  11 H :    0.105045
  12 H :    0.027272
  13 H :    0.032631
Sum of atomic charges:   -0.0000000

LOEWDIN ATOMIC CHARGES
----------------------
   0 O :   -0.117072
   1 C :    0.072184
   2 C :   -0.095675
   3 C :    0.004249
   4 C :    0.016629
   5 N :   -0.103314
   6 C :    0.029066
   7 H :   -0.012351
   8 H :    0.029009
   9 H :    0.029563
  10 H :    0.031254
  11 H :    0.057038
  12 H :    0.029920
  13 H :    0.029501

  Mayer bond orders larger than 0.1
B(  0-O ,  1-C ) :   2.1456 B(  1-C ,  2-C ) :   1.0300 B(  1-C ,  7-H ) :   0.9362
B(  2-C ,  3-C ) :   1.7482 B(  2-C ,  6-C ) :   1.0000 B(  3-C ,  4-C ) :   1.0025
B(  3-C ,  8-H ) :   0.9781 B(  4-C ,  5-N ) :   1.0776 B(  4-C ,  9-H ) :   0.9299
B(  4-C , 10-H ) :   0.9032 B(  5-N ,  6-C ) :   1.0563 B(  5-N , 11-H ) :   0.9552
B(  6-C , 12-H ) :   0.9309 B(  6-C , 13-H ) :   0.9072

FINAL SINGLE POINT ENERGY      -324.043230286825

DIPOLE MOMENT
-------------
                                X             Y             Z
Electronic contribution:      0.95125       3.96185       1.47715
Nuclear contribution   :     -1.40564      -5.07400      -1.11993
                        -----------------------------------------
Total Dipole Moment    :     -0.45440      -1.11215       0.35722
                        -----------------------------------------
Magnitude (a.u.)       :      1.25338
Magnitude (Debye)      :      3.18583

                             ****ORCA TERMINATED NORMALLY****
TOTAL RUN TIME: 0 days 0 hours 0 minutes 6 seconds 565 msec
