                         Program Version 3.0.3 - RELEASE   -
|  1> ! RI PBE def2-SVP def2-SVP/J NBO PAL2
|  2> % maxcore 2000
|  3> % output
|  4>     # printlevel mini
|  5>     print[ P_Basis ] 0
|  6>     print[ P_SCFInfo ] 1
|  7>     print[ P_SCFIterInfo ] 1
|  8>     print[ P_OrbEn ] 0
|  9>     print[ P_Cartesian ] 0
| 10> end
| 11> *xyz 0 1
| 12>  O        0.9357850000    -0.0063670000     0.0284850000
| 13>  C        2.2692360000    -0.0632730000     0.0029250000
| 14>  C        2.9490080000    -0.7084700000    -0.9612040000
| 15>  C        4.3879630000    -0.8308720000    -1.0827100000
| 16>  C        4.5874360000    -1.5610170000    -2.2009240000
| 17>  N        3.3854310000    -1.9306670000    -2.8278340000
| 18>  C        2.4304480000    -1.4362420000    -2.1088280000
| 19>  H        0.6364160000     0.4963690000     0.7903830000
| 20>  H        2.7930790000     0.4441330000     0.8107110000
| 21>  H        5.1290870000    -0.4199470000    -0.4135400000
| 22>  H        5.5276960000    -1.8707730000    -2.6353280000
| 23>  H        1.3854330000    -1.5677630000    -2.3607260000
| 24> *
| 25>
| 26>                          ****END OF INPUT****
 Total Charge           Charge          ....    0
 Multiplicity           Mult            ....    1
 Number of Electrons    NEL             ....   50
 Basis Dimension        Dim             ....  123

MULLIKEN ATOMIC CHARGES
-----------------------
   0 O :   -0.108904
   1 C :    0.050248
   2 C :   -0.010304
   3 C :   -0.016771
   4 C :    0.046620
   5 N :   -0.141615
   6 C :    0.038363
   7 H :    0.188566
   8 H :    0.009116
   9 H :   -0.028975
  10 H :   -0.014944
  11 H :   -0.011401
Sum of atomic charges:   -0.0000000

LOEWDIN ATOMIC CHARGES
----------------------
   0 O :    0.020747
   1 C :    0.089354
   2 C :   -0.104574
   3 C :   -0.075869
   4 C :   -0.012017
   5 N :   -0.088275
   6 C :   -0.001754
   7 H :    0.100233
   8 H :    0.021305
   9 H :    0.021538
  10 H :    0.014406
  11 H :    0.014908

  Mayer bond orders larger than 0.1
B(  0-O ,  1-C ) :   1.3080 B(  0-O ,  7-H ) :   0.9594 B(  1-C ,  2-C ) :   1.5839
B(  1-C ,  8-H ) :   0.9375 B(  2-C ,  3-C ) :   1.1069 B(  2-C ,  6-C ) :   1.0537
B(  3-C ,  4-C ) :   1.5846 B(  3-C ,  9-H ) :   0.9979 B(  4-C ,  5-N ) :   1.2182
B(  4-C , 10-H ) :   0.9925 B(  5-N ,  6-C ) :   1.7712 B(  6-C , 11-H ) :   0.9913

FINAL SINGLE POINT ENERGY      -322.840181175368

DIPOLE MOMENT
-------------
                                X             Y             Z
Electronic contribution:     -1.40685      -0.29764      -0.52007
Nuclear contribution   :      0.79283       1.47908       2.32036
                        -----------------------------------------
Total Dipole Moment    :     -0.61402       1.18144       1.80028
                        -----------------------------------------
Magnitude (a.u.)       :      2.23916
Magnitude (Debye)      :      5.69149

                             ****ORCA TERMINATED NORMALLY****
TOTAL RUN TIME: 0 days 0 hours 0 minutes 5 seconds 991 msec
