                         Program Version 3.0.3 - RELEASE   -
|  1> ! RI PBE def2-SVP def2-SVP/J NBO PAL2
|  2> % maxcore 2000
|  3> % output
|  4>     # printlevel mini
|  5>     print[ P_Basis ] 0
|  6>     print[ P_SCFInfo ] 1
|  7>     print[ P_SCFIterInfo ] 1
|  8>     print[ P_OrbEn ] 0
|  9>     print[ P_Cartesian ] 0
| 10> end
| 11> *xyz 0 1
| 12>  O        0.9152320000    -0.3210960000     0.2513170000
| 13>  C        2.3221500000    -0.1772650000     0.1553760000
| 14>  C        2.7675610000     0.9036510000     1.0706710000
| 15>  C        3.7224270000     0.8346620000     1.9903390000
| 16>  C        3.9314910000     2.1577920000     2.6505700000
| 17>  N        2.7879720000     2.9377720000     2.1857300000
| 18>  C        2.2068090000     2.2933410000     1.0111540000
| 19>  H        0.6227650000    -0.9060860000    -0.4509860000
| 20>  H        2.6067290000     0.0866560000    -0.8752910000
| 21>  H        2.8370910000    -1.1116140000     0.4136430000
| 22>  H        4.2999490000    -0.0489260000     2.2345740000
| 23>  H        4.9076800000     2.5836270000     2.3595990000
| 24>  H        3.9395220000     2.0792140000     3.7454200000
| 25>  H        3.0154620000     3.9066130000     2.0260660000
| 26>  H        2.4889560000     2.7710770000     0.0556430000
| 27>  H        1.1125040000     2.2920820000     1.0539750000
| 28> *
| 29>
| 30>                          ****END OF INPUT****
 Total Charge           Charge          ....    0
 Multiplicity           Mult            ....    1
 Number of Electrons    NEL             ....   54
 Basis Dimension        Dim             ....  143

MULLIKEN ATOMIC CHARGES
-----------------------
   0 O :   -0.274895
   1 C :    0.242254
   2 C :   -0.203305
   3 C :   -0.134582
   4 C :    0.194408
   5 N :   -0.296382
   6 C :    0.226441
   7 H :    0.153775
   8 H :   -0.000192
   9 H :   -0.014223
  10 H :   -0.021848
  11 H :   -0.001620
  12 H :    0.019845
  13 H :    0.097084
  14 H :   -0.011137
  15 H :    0.024376
Sum of atomic charges:    0.0000000

LOEWDIN ATOMIC CHARGES
----------------------
   0 O :   -0.127000
   1 C :    0.063098
   2 C :   -0.052161
   3 C :   -0.042769
   4 C :    0.019103
   5 N :   -0.110046
   6 C :    0.026694
   7 H :    0.069587
   8 H :    0.011905
   9 H :    0.009062
  10 H :    0.021708
  11 H :    0.008460
  12 H :    0.019744
  13 H :    0.052858
  14 H :    0.007353
  15 H :    0.022404

  Mayer bond orders larger than 0.1
B(  0-O ,  1-C ) :   1.1073 B(  0-O ,  7-H ) :   0.9790 B(  1-C ,  2-C ) :   1.0730
B(  1-C ,  8-H ) :   0.9105 B(  1-C ,  9-H ) :   0.9172 B(  2-C ,  3-C ) :   1.8803
B(  2-C ,  6-C ) :   1.0232 B(  3-C ,  4-C ) :   1.0125 B(  3-C , 10-H ) :   0.9805
B(  4-C ,  5-N ) :   1.0564 B(  4-C , 11-H ) :   0.9045 B(  4-C , 12-H ) :   0.9212
B(  5-N ,  6-C ) :   1.0392 B(  5-N , 13-H ) :   0.9456 B(  6-C , 14-H ) :   0.9005
B(  6-C , 15-H ) :   0.9155

FINAL SINGLE POINT ENERGY      -325.229751608279

DIPOLE MOMENT
-------------
                                X             Y             Z
Electronic contribution:     -1.63887      -0.92084       0.24731
Nuclear contribution   :      2.12373       0.70071      -0.99431
                        -----------------------------------------
Total Dipole Moment    :      0.48485      -0.22013      -0.74699
                        -----------------------------------------
Magnitude (a.u.)       :      0.91735
Magnitude (Debye)      :      2.33173

                             ****ORCA TERMINATED NORMALLY****
TOTAL RUN TIME: 0 days 0 hours 0 minutes 6 seconds 912 msec
