                         Program Version 3.0.3 - RELEASE   -
|  1> ! RI PBE def2-SVP def2-SVP/J NBO PAL2
|  2> % maxcore 2000
|  3> % output
|  4>     # printlevel mini
|  5>     print[ P_Basis ] 0
|  6>     print[ P_SCFInfo ] 1
|  7>     print[ P_SCFIterInfo ] 1
|  8>     print[ P_OrbEn ] 0
|  9>     print[ P_Cartesian ] 0
| 10> end
| 11> *xyz 0 1
| 12>  O        1.9793470000     0.4270680000    -1.3723240000
| 13>  C        2.3888080000     0.0885050000    -0.0542140000
| 14>  C        2.8350950000    -1.3270770000    -0.0174380000
| 15>  C        4.1164370000    -1.7649910000     0.2091140000
| 16>  N        4.1125620000    -3.1262020000     0.1652320000
| 17>  C        2.8498070000    -3.5764010000    -0.0905680000
| 18>  C        2.0331940000    -2.4841520000    -0.2079600000
| 19>  H        1.5704750000     1.2956090000    -1.3418020000
| 20>  H        1.5545890000     0.2334350000     0.6464140000
| 21>  H        3.2125860000     0.7357700000     0.2762310000
| 22>  H        5.0218390000    -1.2086720000     0.3949750000
| 23>  H        4.9165920000    -3.7099000000     0.3023960000
| 24>  H        2.6363110000    -4.6303240000    -0.1684530000
| 25>  H        0.9757490000    -2.5030570000    -0.4215050000
| 26> *
| 27>
| 28>                          ****END OF INPUT****
 Total Charge           Charge          ....    0
 Multiplicity           Mult            ....    1
 Number of Electrons    NEL             ....   52
 Basis Dimension        Dim             ....  133

MULLIKEN ATOMIC CHARGES
-----------------------
   0 O :   -0.278920
   1 C :    0.243999
   2 C :   -0.093732
   3 C :    0.004680
   4 N :   -0.050133
   5 C :    0.039764
   6 C :   -0.035256
   7 H :    0.146905
   8 H :   -0.004665
   9 H :   -0.027555
  10 H :   -0.019535
  11 H :    0.113620
  12 H :   -0.009471
  13 H :   -0.029701
Sum of atomic charges:   -0.0000000

LOEWDIN ATOMIC CHARGES
----------------------
   0 O :   -0.134503
   1 C :    0.061381
   2 C :   -0.094208
   3 C :   -0.037897
   4 N :    0.101059
   5 C :   -0.038594
   6 C :   -0.074197
   7 H :    0.064001
   8 H :    0.008994
   9 H :    0.004254
  10 H :    0.016312
  11 H :    0.082403
  12 H :    0.016865
  13 H :    0.024130

  Mayer bond orders larger than 0.1
B(  0-O ,  1-C ) :   1.1177 B(  0-O ,  7-H ) :   0.9818 B(  1-C ,  2-C ) :   1.0909
B(  1-C ,  8-H ) :   0.9150 B(  1-C ,  9-H ) :   0.9084 B(  2-C ,  3-C ) :   1.4822
B(  2-C ,  6-C ) :   1.3335 B(  3-C ,  4-N ) :   1.2273 B(  3-C , 10-H ) :   0.9820
B(  4-N ,  5-C ) :   1.2213 B(  4-N , 11-H ) :   0.9429 B(  5-C ,  6-C ) :   1.4643
B(  5-C , 12-H ) :   0.9846 B(  6-C , 13-H ) :   1.0102

FINAL SINGLE POINT ENERGY      -324.065047499905

DIPOLE MOMENT
-------------
                                X             Y             Z
Electronic contribution:      0.81968      -1.52757      -0.66104
Nuclear contribution   :     -0.29272       1.36767       1.17298
                        -----------------------------------------
Total Dipole Moment    :      0.52696      -0.15990       0.51193
                        -----------------------------------------
Magnitude (a.u.)       :      0.75188
Magnitude (Debye)      :      1.91114

                             ****ORCA TERMINATED NORMALLY****
TOTAL RUN TIME: 0 days 0 hours 0 minutes 6 seconds 197 msec
