                         Program Version 3.0.3 - RELEASE   -
|  1> ! RI PBE def2-SVP def2-SVP/J NBO PAL2
|  2> % maxcore 2000
|  3> % output
|  4>     # printlevel mini
|  5>     print[ P_Basis ] 0
|  6>     print[ P_SCFInfo ] 1
|  7>     print[ P_SCFIterInfo ] 1
|  8>     print[ P_OrbEn ] 0
|  9>     print[ P_Cartesian ] 0
| 10> end
| 11> *xyz 0 1
| 12>  O        0.9515900000     0.6382880000     0.5952250000
| 13>  C        1.8699870000     0.0159900000     0.1421590000
| 14>  C        2.9434970000    -0.6442630000     0.9676570000
| 15>  C        2.9466850000    -2.1710970000     0.7955290000
| 16>  C        4.4280640000    -2.4262140000     0.7790980000
| 17>  N        5.1210760000    -1.3765940000     0.6040350000
| 18>  N        4.2720370000    -0.2975250000     0.4568850000
| 19>  H        1.9978360000    -0.1269840000    -0.9528130000
| 20>  H        2.8078020000    -0.3634720000     2.0191190000
| 21>  H        2.5031430000    -2.4700100000    -0.1639520000
| 22>  H        2.4074370000    -2.6925550000     1.5860640000
| 23>  H        4.9039760000    -3.3958240000     0.8483520000
| 24>  H        4.6869820000     0.5370720000     0.8443530000
| 25> *
| 26>
| 27>                          ****END OF INPUT****
 Total Charge           Charge          ....    0
 Multiplicity           Mult            ....    1
 Number of Electrons    NEL             ....   52
 Basis Dimension        Dim             ....  128

MULLIKEN ATOMIC CHARGES
-----------------------
   0 O :   -0.142226
   1 C :    0.130813
   2 C :    0.007418
   3 C :    0.031375
   4 C :   -0.045619
   5 N :   -0.078348
   6 N :   -0.144539
   7 H :   -0.010560
   8 H :    0.019389
   9 H :    0.036454
  10 H :    0.051827
  11 H :    0.019436
  12 H :    0.124579
Sum of atomic charges:   -0.0000000

LOEWDIN ATOMIC CHARGES
----------------------
   0 O :   -0.096987
   1 C :    0.079894
   2 C :   -0.028439
   3 C :   -0.045104
   4 C :   -0.048517
   5 N :   -0.030969
   6 N :   -0.013328
   7 H :   -0.010098
   8 H :    0.022752
   9 H :    0.039815
  10 H :    0.042208
  11 H :    0.023903
  12 H :    0.064869

  Mayer bond orders larger than 0.1
B(  0-O ,  1-C ) :   2.1974 B(  1-C ,  2-C ) :   0.9315 B(  1-C ,  7-H ) :   0.9159
B(  2-C ,  3-C ) :   1.0473 B(  2-C ,  6-N ) :   0.9278 B(  2-C ,  8-H ) :   0.9039
B(  3-C ,  4-C ) :   0.9951 B(  3-C ,  9-H ) :   0.8979 B(  3-C , 10-H ) :   0.9372
B(  4-C ,  5-N ) :   1.8948 B(  4-C ,  6-N ) :   0.1081 B(  4-C , 11-H ) :   0.9772
B(  5-N ,  6-N ) :   1.0770 B(  6-N , 12-H ) :   0.9414

FINAL SINGLE POINT ENERGY      -340.053533568027

DIPOLE MOMENT
-------------
                                X             Y             Z
Electronic contribution:     -0.03764       2.56987      -0.18901
Nuclear contribution   :      0.15800      -3.10995       0.43036
                        -----------------------------------------
Total Dipole Moment    :      0.12036      -0.54009       0.24135
                        -----------------------------------------
Magnitude (a.u.)       :      0.60368
Magnitude (Debye)      :      1.53444

                             ****ORCA TERMINATED NORMALLY****
TOTAL RUN TIME: 0 days 0 hours 0 minutes 6 seconds 373 msec
