                         Program Version 3.0.3 - RELEASE   -
|  1> ! RI PBE def2-SVP def2-SVP/J NBO PAL2
|  2> % maxcore 2000
|  3> % output
|  4>     # printlevel mini
|  5>     print[ P_Basis ] 0
|  6>     print[ P_SCFInfo ] 1
|  7>     print[ P_SCFIterInfo ] 1
|  8>     print[ P_OrbEn ] 0
|  9>     print[ P_Cartesian ] 0
| 10> end
| 11> *xyz 0 1
| 12>  O        0.9880010000    -0.0761760000     0.0295430000
| 13>  C        2.3088710000    -0.0767640000     0.0335290000
| 14>  C        3.0497600000    -1.1845090000    -0.1974410000
| 15>  C        4.4807670000    -1.2892630000    -0.2150310000
| 16>  C        4.6886550000    -2.5948810000    -0.4893740000
| 17>  N        3.4643510000    -3.2602300000    -0.6332820000
| 18>  N        2.5025410000    -2.4423650000    -0.4640440000
| 19>  H        0.6498700000     0.8050150000     0.2140510000
| 20>  H        2.8060720000     0.8703130000     0.2345250000
| 21>  H        5.2029650000    -0.5055250000    -0.0477200000
| 22>  H        5.6113360000    -3.1439970000    -0.6021560000
| 23> *
| 24>
| 25>                          ****END OF INPUT****
 Total Charge           Charge          ....    0
 Multiplicity           Mult            ....    1
 Number of Electrons    NEL             ....   50
 Basis Dimension        Dim             ....  118

MULLIKEN ATOMIC CHARGES
-----------------------
   0 O :   -0.064683
   1 C :    0.085294
   2 C :    0.017664
   3 C :   -0.045925
   4 C :    0.077635
   5 N :   -0.124577
   6 N :   -0.124909
   7 H :    0.193575
   8 H :    0.007653
   9 H :   -0.012767
  10 H :   -0.008959
Sum of atomic charges:   -0.0000000

LOEWDIN ATOMIC CHARGES
----------------------
   0 O :    0.057654
   1 C :    0.100471
   2 C :   -0.095234
   3 C :   -0.067145
   4 C :   -0.038020
   5 N :   -0.058933
   6 N :   -0.076496
   7 H :    0.105277
   8 H :    0.025533
   9 H :    0.027891
  10 H :    0.019004

  Mayer bond orders larger than 0.1
B(  0-O ,  1-C ) :   1.3613 B(  0-O ,  7-H ) :   0.9541 B(  1-C ,  2-C ) :   1.5332
B(  1-C ,  8-H ) :   0.9328 B(  2-C ,  3-C ) :   1.1194 B(  2-C ,  6-N ) :   1.1883
B(  3-C ,  4-C ) :   1.5705 B(  3-C ,  6-N ) :   0.1178 B(  3-C ,  9-H ) :   0.9861
B(  4-C ,  5-N ) :   1.2096 B(  4-C , 10-H ) :   0.9888 B(  5-N ,  6-N ) :   1.5371

FINAL SINGLE POINT ENERGY      -338.838920243620

DIPOLE MOMENT
-------------
                                X             Y             Z
Electronic contribution:     -2.09906      -1.31173      -0.27964
Nuclear contribution   :      2.09998       3.81270       0.80945
                        -----------------------------------------
Total Dipole Moment    :      0.00092       2.50098       0.52981
                        -----------------------------------------
Magnitude (a.u.)       :      2.55648
Magnitude (Debye)      :      6.49805

                             ****ORCA TERMINATED NORMALLY****
TOTAL RUN TIME: 0 days 0 hours 0 minutes 6 seconds 187 msec
