                         Program Version 3.0.3 - RELEASE   -
|  1> ! RI PBE def2-SVP def2-SVP/J NBO PAL2
|  2> % maxcore 2000
|  3> % output
|  4>     # printlevel mini
|  5>     print[ P_Basis ] 0
|  6>     print[ P_SCFInfo ] 1
|  7>     print[ P_SCFIterInfo ] 1
|  8>     print[ P_OrbEn ] 0
|  9>     print[ P_Cartesian ] 0
| 10> end
| 11> *xyz 0 1
| 12>  O        3.6621420000     0.2470840000     0.9162060000
| 13>  C        2.6088270000    -0.1515200000     0.0619960000
| 14>  C        2.7853470000     0.5704940000    -1.2473220000
| 15>  C        1.7500780000     0.2358860000    -2.3212560000
| 16>  C        1.6498760000     1.5730010000    -2.9998240000
| 17>  N        2.1361940000     2.5246680000    -2.3066200000
| 18>  N        2.5914190000     2.0165890000    -1.1121570000
| 19>  H        3.4882920000    -0.0828850000     1.7999660000
| 20>  H        1.6302190000     0.1146240000     0.4816780000
| 21>  H        2.6316500000    -1.2368490000    -0.1116910000
| 22>  H        3.7955680000     0.3544240000    -1.6288550000
| 23>  H        0.7827700000    -0.0366340000    -1.8752040000
| 24>  H        2.0527080000    -0.5772780000    -2.9815510000
| 25>  H        1.1636400000     1.7755410000    -3.9453430000
| 26>  H        3.3831910000     2.5388460000    -0.7687240000
| 27> *
| 28>
| 29>                          ****END OF INPUT****
 Total Charge           Charge          ....    0
 Multiplicity           Mult            ....    1
 Number of Electrons    NEL             ....   54
 Basis Dimension        Dim             ....  138

MULLIKEN ATOMIC CHARGES
-----------------------
   0 O :   -0.281461
   1 C :    0.214861
   2 C :   -0.044907
   3 C :    0.049679
   4 C :   -0.062976
   5 N :   -0.084143
   6 N :   -0.132336
   7 H :    0.159152
   8 H :   -0.008727
   9 H :    0.000420
  10 H :    0.010506
  11 H :    0.020767
  12 H :    0.034400
  13 H :    0.006023
  14 H :    0.118744
Sum of atomic charges:    0.0000000

LOEWDIN ATOMIC CHARGES
----------------------
   0 O :   -0.129148
   1 C :    0.052935
   2 C :   -0.005021
   3 C :   -0.055052
   4 C :   -0.060391
   5 N :   -0.038997
   6 N :   -0.012744
   7 H :    0.073739
   8 H :    0.005456
   9 H :    0.006053
  10 H :    0.017260
  11 H :    0.033552
  12 H :    0.034602
  13 H :    0.017054
  14 H :    0.060702

  Mayer bond orders larger than 0.1
B(  0-O ,  1-C ) :   1.1157 B(  0-O ,  7-H ) :   0.9771 B(  1-C ,  2-C ) :   1.0564
B(  1-C ,  8-H ) :   0.9088 B(  1-C ,  9-H ) :   0.9281 B(  2-C ,  3-C ) :   1.0544
B(  2-C ,  6-N ) :   0.9592 B(  2-C , 10-H ) :   0.9060 B(  3-C ,  4-C ) :   1.0068
B(  3-C , 11-H ) :   0.8906 B(  3-C , 12-H ) :   0.9359 B(  4-C ,  5-N ) :   1.8794
B(  4-C ,  6-N ) :   0.1137 B(  4-C , 13-H ) :   0.9779 B(  5-N ,  6-N ) :   1.0931
B(  6-N , 14-H ) :   0.9377

FINAL SINGLE POINT ENERGY      -341.251591066126

DIPOLE MOMENT
-------------
                                X             Y             Z
Electronic contribution:      0.88813       3.57445      -0.16801
Nuclear contribution   :     -0.93084      -4.60877       0.58580
                        -----------------------------------------
Total Dipole Moment    :     -0.04271      -1.03432       0.41779
                        -----------------------------------------
Magnitude (a.u.)       :      1.11633
Magnitude (Debye)      :      2.83748

                             ****ORCA TERMINATED NORMALLY****
TOTAL RUN TIME: 0 days 0 hours 0 minutes 7 seconds 114 msec
