                         Program Version 3.0.3 - RELEASE   -
|  1> ! RI PBE def2-SVP def2-SVP/J NBO PAL2
|  2> % maxcore 2000
|  3> % output
|  4>     # printlevel mini
|  5>     print[ P_Basis ] 0
|  6>     print[ P_SCFInfo ] 1
|  7>     print[ P_SCFIterInfo ] 1
|  8>     print[ P_OrbEn ] 0
|  9>     print[ P_Cartesian ] 0
| 10> end
| 11> *xyz 0 1
| 12>  O        2.1574390000    -1.1200530000    -0.9037950000
| 13>  C        2.1869140000    -0.0094920000    -0.0301920000
| 14>  C        2.6459700000     1.1754020000    -0.8069110000
| 15>  C        2.8548560000     2.4926130000    -0.4599390000
| 16>  C        3.2877370000     3.1013340000    -1.6502980000
| 17>  N        3.3438370000     2.2388160000    -2.6519360000
| 18>  N        2.9507760000     1.0842730000    -2.1128680000
| 19>  H        1.8587510000    -1.8905340000    -0.4173680000
| 20>  H        2.8716140000    -0.1862780000     0.8100430000
| 21>  H        1.1917830000     0.1890370000     0.3897340000
| 22>  H        2.7152170000     2.9452690000     0.5083660000
| 23>  H        3.5604370000     4.1329360000    -1.8167660000
| 24>  H        2.9015700000     0.2477680000    -2.6683710000
| 25> *
| 26>
| 27>                          ****END OF INPUT****
 Total Charge           Charge          ....    0
 Multiplicity           Mult            ....    1
 Number of Electrons    NEL             ....   52
 Basis Dimension        Dim             ....  128

MULLIKEN ATOMIC CHARGES
-----------------------
   0 O :   -0.286006
   1 C :    0.264899
   2 C :   -0.046083
   3 C :   -0.124162
   4 C :    0.037371
   5 N :   -0.116562
   6 N :   -0.018830
   7 H :    0.165380
   8 H :    0.018107
   9 H :    0.015566
  10 H :   -0.023762
  11 H :   -0.009025
  12 H :    0.123107
Sum of atomic charges:   -0.0000000

LOEWDIN ATOMIC CHARGES
----------------------
   0 O :   -0.126771
   1 C :    0.064845
   2 C :   -0.047644
   3 C :   -0.115412
   4 C :   -0.051738
   5 N :   -0.104505
   6 N :    0.142737
   7 H :    0.078687
   8 H :    0.020275
   9 H :    0.019964
  10 H :    0.023864
  11 H :    0.017595
  12 H :    0.078103

  Mayer bond orders larger than 0.1
B(  0-O ,  1-C ) :   1.1132 B(  0-O ,  7-H ) :   0.9712 B(  1-C ,  2-C ) :   1.0325
B(  1-C ,  8-H ) :   0.9175 B(  1-C ,  9-H ) :   0.9148 B(  2-C ,  3-C ) :   1.4318
B(  2-C ,  5-N ) :   0.1241 B(  2-C ,  6-N ) :   1.2673 B(  3-C ,  4-C ) :   1.3132
B(  3-C , 10-H ) :   0.9978 B(  4-C ,  5-N ) :   1.5812 B(  4-C , 11-H ) :   0.9865
B(  5-N ,  6-N ) :   1.1705 B(  6-N , 12-H ) :   0.9379

FINAL SINGLE POINT ENERGY      -340.083017503475

DIPOLE MOMENT
-------------
                                X             Y             Z
Electronic contribution:      0.81893       0.49618      -2.83355
Nuclear contribution   :     -1.31516      -1.54234       3.87010
                        -----------------------------------------
Total Dipole Moment    :     -0.49623      -1.04616       1.03655
                        -----------------------------------------
Magnitude (a.u.)       :      1.55407
Magnitude (Debye)      :      3.95013

                             ****ORCA TERMINATED NORMALLY****
TOTAL RUN TIME: 0 days 0 hours 0 minutes 6 seconds 32 msec
