                         Program Version 3.0.3 - RELEASE   -
|  1> ! RI PBE def2-SVP def2-SVP/J NBO PAL2
|  2> % maxcore 2000
|  3> % output
|  4>     # printlevel mini
|  5>     print[ P_Basis ] 0
|  6>     print[ P_SCFInfo ] 1
|  7>     print[ P_SCFIterInfo ] 1
|  8>     print[ P_OrbEn ] 0
|  9>     print[ P_Cartesian ] 0
| 10> end
| 11> *xyz 0 1
| 12>  O        1.1648760000     0.3490570000     0.3935770000
| 13>  C        2.3289620000    -0.2924790000    -0.0633670000
| 14>  C        2.8123340000     0.4348150000    -1.2632030000
| 15>  C        2.3564060000     1.5170300000    -1.9358210000
| 16>  C        3.3029690000     1.6607560000    -2.9784010000
| 17>  N        4.2329170000     0.7515250000    -2.9316250000
| 18>  O        3.9230920000    -0.0310140000    -1.8395340000
| 19>  H        0.8404580000    -0.1214870000     1.1640870000
| 20>  H        2.1400440000    -1.3402680000    -0.3366900000
| 21>  H        3.1237970000    -0.2906790000     0.6959330000
| 22>  H        1.4857430000     2.1089240000    -1.7152880000
| 23>  H        3.3368930000     2.4007090000    -3.7653470000
| 24> *
| 25>
| 26>                          ****END OF INPUT****
 Total Charge           Charge          ....    0
 Multiplicity           Mult            ....    1
 Number of Electrons    NEL             ....   52
 Basis Dimension        Dim             ....  123

MULLIKEN ATOMIC CHARGES
-----------------------
   0 O :   -0.264855
   1 C :    0.237065
   2 C :    0.032310
   3 C :   -0.089018
   4 C :    0.033809
   5 N :   -0.027407
   6 O :   -0.165609
   7 H :    0.164285
   8 H :    0.027314
   9 H :    0.029215
  10 H :    0.006824
  11 H :    0.016067
Sum of atomic charges:   -0.0000000

LOEWDIN ATOMIC CHARGES
----------------------
   0 O :   -0.114057
   1 C :    0.056215
   2 C :    0.005188
   3 C :   -0.100870
   4 C :   -0.040449
   5 N :   -0.040142
   6 O :    0.034457
   7 H :    0.078388
   8 H :    0.025222
   9 H :    0.025417
  10 H :    0.038991
  11 H :    0.031640

  Mayer bond orders larger than 0.1
B(  0-O ,  1-C ) :   1.1410 B(  0-O ,  7-H ) :   0.9728 B(  1-C ,  2-C ) :   1.0408
B(  1-C ,  8-H ) :   0.9090 B(  1-C ,  9-H ) :   0.9098 B(  2-C ,  3-C ) :   1.5517
B(  2-C ,  5-N ) :   0.1183 B(  2-C ,  6-O ) :   1.1767 B(  3-C ,  4-C ) :   1.2016
B(  3-C , 10-H ) :   0.9946 B(  4-C ,  5-N ) :   1.6847 B(  4-C , 11-H ) :   0.9748
B(  5-N ,  6-O ) :   1.0065

FINAL SINGLE POINT ENERGY      -359.888656505832

DIPOLE MOMENT
-------------
                                X             Y             Z
Electronic contribution:      2.23943       0.02831      -2.14521
Nuclear contribution   :     -3.07281      -0.18366       3.07697
                        -----------------------------------------
Total Dipole Moment    :     -0.83339      -0.15535       0.93176
                        -----------------------------------------
Magnitude (a.u.)       :      1.25970
Magnitude (Debye)      :      3.20191

                             ****ORCA TERMINATED NORMALLY****
TOTAL RUN TIME: 0 days 0 hours 0 minutes 5 seconds 931 msec
