                         Program Version 3.0.3 - RELEASE   -
|  1> ! RI PBE def2-SVP def2-SVP/J NBO PAL2
|  2> % maxcore 2000
|  3> % output
|  4>     # printlevel mini
|  5>     print[ P_Basis ] 0
|  6>     print[ P_SCFInfo ] 1
|  7>     print[ P_SCFIterInfo ] 1
|  8>     print[ P_OrbEn ] 0
|  9>     print[ P_Cartesian ] 0
| 10> end
| 11> *xyz 0 1
| 12>  O        2.4242860000    -1.0658330000     0.4425410000
| 13>  C        2.2446870000     0.0194600000    -0.0382750000
| 14>  C        2.9697320000     0.5485780000    -1.1970910000
| 15>  C        2.8656620000     1.7464470000    -1.8336360000
| 16>  C        3.8251460000     1.6464690000    -2.8628710000
| 17>  N        4.4381320000     0.4938000000    -2.8341360000
| 18>  O        3.9057860000    -0.1996810000    -1.7910110000
| 19>  H        1.4958070000     0.7276510000     0.3690700000
| 20>  H        2.2065750000     2.5661290000    -1.6000110000
| 21>  H        4.0922880000     2.3673800000    -3.6213800000
| 22> *
| 23>
| 24>                          ****END OF INPUT****
 Total Charge           Charge          ....    0
 Multiplicity           Mult            ....    1
 Number of Electrons    NEL             ....   50
 Basis Dimension        Dim             ....  113

MULLIKEN ATOMIC CHARGES
-----------------------
   0 O :   -0.127750
   1 C :    0.143209
   2 C :    0.093758
   3 C :   -0.069149
   4 C :    0.045935
   5 N :    0.001898
   6 O :   -0.124499
   7 H :   -0.015053
   8 H :    0.023320
   9 H :    0.028331
Sum of atomic charges:    0.0000000

LOEWDIN ATOMIC CHARGES
----------------------
   0 O :   -0.083133
   1 C :    0.067808
   2 C :   -0.033382
   3 C :   -0.063308
   4 C :   -0.032222
   5 N :   -0.006239
   6 O :    0.071477
   7 H :   -0.001913
   8 H :    0.043456
   9 H :    0.037456

  Mayer bond orders larger than 0.1
B(  0-O ,  1-C ) :   2.1783 B(  1-C ,  2-C ) :   0.9870 B(  1-C ,  7-H ) :   0.9417
B(  2-C ,  3-C ) :   1.4449 B(  2-C ,  5-N ) :   0.1114 B(  2-C ,  6-O ) :   1.1742
B(  3-C ,  4-C ) :   1.2332 B(  3-C ,  8-H ) :   0.9862 B(  4-C ,  5-N ) :   1.6515
B(  4-C ,  9-H ) :   0.9800 B(  5-N ,  6-O ) :   1.0518

FINAL SINGLE POINT ENERGY      -358.693361148007

DIPOLE MOMENT
-------------
                                X             Y             Z
Electronic contribution:      1.19644      -2.62083       0.29207
Nuclear contribution   :     -1.79528       4.12239      -0.55414
                        -----------------------------------------
Total Dipole Moment    :     -0.59884       1.50155      -0.26207
                        -----------------------------------------
Magnitude (a.u.)       :      1.63767
Magnitude (Debye)      :      4.16262

                             ****ORCA TERMINATED NORMALLY****
TOTAL RUN TIME: 0 days 0 hours 0 minutes 5 seconds 175 msec
