                         Program Version 3.0.3 - RELEASE   -
|  1> ! RI PBE def2-SVP def2-SVP/J NBO PAL2
|  2> % maxcore 2000
|  3> % output
|  4>     # printlevel mini
|  5>     print[ P_Basis ] 0
|  6>     print[ P_SCFInfo ] 1
|  7>     print[ P_SCFIterInfo ] 1
|  8>     print[ P_OrbEn ] 0
|  9>     print[ P_Cartesian ] 0
| 10> end
| 11> *xyz 0 1
| 12>  O        2.2639540000    -0.6421400000     1.1587860000
| 13>  C        2.0773160000    -0.0236460000     0.1502970000
| 14>  C        2.7859530000    -0.3162690000    -1.1621350000
| 15>  C        3.0866880000    -1.7918410000    -1.3667940000
| 16>  C        2.0144360000    -2.1071740000    -2.3589220000
| 17>  N        1.4055620000    -1.0944800000    -2.8184750000
| 18>  O        1.9186200000     0.0569980000    -2.2428480000
| 19>  H        1.3686050000     0.8279900000     0.1014080000
| 20>  H        3.6704250000     0.3275130000    -1.2108220000
| 21>  H        2.9980680000    -2.3488030000    -0.4314040000
| 22>  H        4.0788730000    -1.9837530000    -1.7845080000
| 23>  H        1.7441190000    -3.0900970000    -2.7222810000
| 24> *
| 25>
| 26>                          ****END OF INPUT****
 Total Charge           Charge          ....    0
 Multiplicity           Mult            ....    1
 Number of Electrons    NEL             ....   52
 Basis Dimension        Dim             ....  123

MULLIKEN ATOMIC CHARGES
-----------------------
   0 O :   -0.144743
   1 C :    0.133390
   2 C :    0.066157
   3 C :    0.018451
   4 C :   -0.044632
   5 N :    0.025209
   6 O :   -0.266598
   7 H :    0.018183
   8 H :    0.055638
   9 H :    0.057495
  10 H :    0.046956
  11 H :    0.034493
Sum of atomic charges:   -0.0000000

LOEWDIN ATOMIC CHARGES
----------------------
   0 O :   -0.087554
   1 C :    0.091506
   2 C :    0.003723
   3 C :   -0.055903
   4 C :   -0.043526
   5 N :    0.013191
   6 O :   -0.089742
   7 H :    0.000079
   8 H :    0.046902
   9 H :    0.043930
  10 H :    0.044511
  11 H :    0.032882

  Mayer bond orders larger than 0.1
B(  0-O ,  1-C ) :   2.1850 B(  1-C ,  2-C ) :   0.8945 B(  1-C ,  7-H ) :   0.9255
B(  2-C ,  3-C ) :   1.0992 B(  2-C ,  6-O ) :   0.9580 B(  2-C ,  8-H ) :   0.8891
B(  3-C ,  4-C ) :   1.0012 B(  3-C ,  9-H ) :   0.9151 B(  3-C , 10-H ) :   0.9104
B(  4-C ,  5-N ) :   1.8977 B(  4-C ,  6-O ) :   0.1070 B(  4-C , 11-H ) :   0.9687
B(  5-N ,  6-O ) :   0.9729

FINAL SINGLE POINT ENERGY      -359.872987136584

DIPOLE MOMENT
-------------
                                X             Y             Z
Electronic contribution:     -1.80248       1.65047      -0.02184
Nuclear contribution   :      2.56778      -1.98712       0.00949
                        -----------------------------------------
Total Dipole Moment    :      0.76531      -0.33665      -0.01236
                        -----------------------------------------
Magnitude (a.u.)       :      0.83617
Magnitude (Debye)      :      2.12538

                             ****ORCA TERMINATED NORMALLY****
TOTAL RUN TIME: 0 days 0 hours 0 minutes 5 seconds 826 msec
