                         Program Version 3.0.3 - RELEASE   -
|  1> ! RI PBE def2-SVP def2-SVP/J NBO PAL2
|  2> % maxcore 2000
|  3> % output
|  4>     # printlevel mini
|  5>     print[ P_Basis ] 0
|  6>     print[ P_SCFInfo ] 1
|  7>     print[ P_SCFIterInfo ] 1
|  8>     print[ P_OrbEn ] 0
|  9>     print[ P_Cartesian ] 0
| 10> end
| 11> *xyz 0 1
| 12>  O        3.2547600000    -0.8610140000     0.3922720000
| 13>  C        2.2514370000     0.0087740000    -0.0693140000
| 14>  C        2.9004910000     1.2691050000    -0.5921810000
| 15>  C        1.9053750000     2.2158880000    -1.2612290000
| 16>  C        1.9124040000     3.3351890000    -0.2727490000
| 17>  N        2.7549550000     3.1996340000     0.6649610000
| 18>  O        3.4517030000     2.0264700000     0.5096730000
| 19>  H        2.8639590000    -1.5043060000     0.9862740000
| 20>  H        1.5488480000     0.2856280000     0.7283160000
| 21>  H        1.6757390000    -0.4488400000    -0.8886920000
| 22>  H        3.7382310000     0.9980330000    -1.2389030000
| 23>  H        0.9118250000     1.7710370000    -1.3745530000
| 24>  H        2.2243180000     2.5533370000    -2.2511350000
| 25>  H        1.2911460000     4.2209550000    -0.2996390000
| 26> *
| 27>
| 28>                          ****END OF INPUT****
 Total Charge           Charge          ....    0
 Multiplicity           Mult            ....    1
 Number of Electrons    NEL             ....   54
 Basis Dimension        Dim             ....  133

MULLIKEN ATOMIC CHARGES
-----------------------
   0 O :   -0.264965
   1 C :    0.206551
   2 C :    0.048897
   3 C :    0.016397
   4 C :   -0.062938
   5 N :    0.025701
   6 O :   -0.260390
   7 H :    0.159757
   8 H :   -0.000665
   9 H :   -0.001224
  10 H :    0.027804
  11 H :    0.034477
  12 H :    0.044008
  13 H :    0.026589
Sum of atomic charges:    0.0000000

LOEWDIN ATOMIC CHARGES
----------------------
   0 O :   -0.116533
   1 C :    0.045354
   2 C :    0.038229
   3 C :   -0.060116
   4 C :   -0.060952
   5 N :    0.010694
   6 O :   -0.085369
   7 H :    0.074922
   8 H :    0.012332
   9 H :    0.005492
  10 H :    0.027993
  11 H :    0.037960
  12 H :    0.041932
  13 H :    0.028063

  Mayer bond orders larger than 0.1
B(  0-O ,  1-C ) :   1.1263 B(  0-O ,  7-H ) :   0.9776 B(  1-C ,  2-C ) :   1.0299
B(  1-C ,  8-H ) :   0.9139 B(  1-C ,  9-H ) :   0.9228 B(  2-C ,  3-C ) :   1.0740
B(  2-C ,  6-O ) :   0.9490 B(  2-C , 10-H ) :   0.9146 B(  3-C ,  4-C ) :   0.9946
B(  3-C , 11-H ) :   0.9241 B(  3-C , 12-H ) :   0.9131 B(  4-C ,  5-N ) :   1.8931
B(  4-C ,  6-O ) :   0.1188 B(  4-C , 13-H ) :   0.9687 B(  5-N ,  6-O ) :   0.9969

FINAL SINGLE POINT ENERGY      -361.069054264765

DIPOLE MOMENT
-------------
                                X             Y             Z
Electronic contribution:      2.88126       2.05235       2.81522
Nuclear contribution   :     -4.01291      -2.59510      -3.59610
                        -----------------------------------------
Total Dipole Moment    :     -1.13165      -0.54275      -0.78088
                        -----------------------------------------
Magnitude (a.u.)       :      1.47817
Magnitude (Debye)      :      3.75721

                             ****ORCA TERMINATED NORMALLY****
TOTAL RUN TIME: 0 days 0 hours 0 minutes 6 seconds 678 msec
