                         Program Version 3.0.3 - RELEASE   -
|  1> ! RI PBE def2-SVP def2-SVP/J NBO PAL2
|  2> % maxcore 2000
|  3> % output
|  4>     # printlevel mini
|  5>     print[ P_Basis ] 0
|  6>     print[ P_SCFInfo ] 1
|  7>     print[ P_SCFIterInfo ] 1
|  8>     print[ P_OrbEn ] 0
|  9>     print[ P_Cartesian ] 0
| 10> end
| 11> *xyz 0 1
| 12>  O        2.2879090000     0.1557480000    -1.2056060000
| 13>  C        2.6752590000     0.1648670000     0.1498970000
| 14>  C        2.8955490000    -1.2480070000     0.5788910000
| 15>  N        3.2635500000    -1.5200080000     1.8002300000
| 16>  O        3.3766730000    -2.8860130000     1.8656570000
| 17>  C        3.0722550000    -3.4038990000     0.6758830000
| 18>  C        2.7543790000    -2.4243800000    -0.1990450000
| 19>  H        2.1465090000     1.0619940000    -1.4863880000
| 20>  H        1.9034840000     0.6143420000     0.7874110000
| 21>  H        3.6026450000     0.7315910000     0.3010900000
| 22>  H        3.1247710000    -4.4787980000     0.5997680000
| 23>  H        2.4643170000    -2.5011380000    -1.2319870000
| 24> *
| 25>
| 26>                          ****END OF INPUT****
 Total Charge           Charge          ....    0
 Multiplicity           Mult            ....    1
 Number of Electrons    NEL             ....   52
 Basis Dimension        Dim             ....  123

MULLIKEN ATOMIC CHARGES
-----------------------
   0 O :   -0.269823
   1 C :    0.256860
   2 C :   -0.138199
   3 N :   -0.050629
   4 O :   -0.142949
   5 C :    0.165256
   6 C :   -0.056950
   7 H :    0.160498
   8 H :    0.023760
   9 H :    0.021916
  10 H :    0.025226
  11 H :    0.005033
Sum of atomic charges:   -0.0000000

LOEWDIN ATOMIC CHARGES
----------------------
   0 O :   -0.120956
   1 C :    0.064881
   2 C :   -0.064338
   3 N :   -0.054647
   4 O :    0.047558
   5 C :    0.028510
   6 C :   -0.091522
   7 H :    0.076584
   8 H :    0.023070
   9 H :    0.022939
  10 H :    0.028647
  11 H :    0.039275

  Mayer bond orders larger than 0.1
B(  0-O ,  1-C ) :   1.1302 B(  0-O ,  7-H ) :   0.9733 B(  1-C ,  2-C ) :   1.0214
B(  1-C ,  8-H ) :   0.9185 B(  1-C ,  9-H ) :   0.9172 B(  2-C ,  3-N ) :   1.6356
B(  2-C ,  6-C ) :   1.2546 B(  3-N ,  4-O ) :   1.0124 B(  3-N ,  5-C ) :   0.1260
B(  4-O ,  5-C ) :   1.1919 B(  5-C ,  6-C ) :   1.5171 B(  5-C , 10-H ) :   0.9763
B(  6-C , 11-H ) :   0.9886

FINAL SINGLE POINT ENERGY      -359.887690111704

DIPOLE MOMENT
-------------
                                X             Y             Z
Electronic contribution:      0.88787      -2.58539       2.48860
Nuclear contribution   :     -1.14349       2.93974      -3.29418
                        -----------------------------------------
Total Dipole Moment    :     -0.25563       0.35435      -0.80558
                        -----------------------------------------
Magnitude (a.u.)       :      0.91644
Magnitude (Debye)      :      2.32941

                             ****ORCA TERMINATED NORMALLY****
TOTAL RUN TIME: 0 days 0 hours 0 minutes 5 seconds 752 msec
