                         Program Version 3.0.3 - RELEASE   -
|  1> ! RI PBE def2-SVP def2-SVP/J NBO PAL2
|  2> % maxcore 2000
|  3> % output
|  4>     # printlevel mini
|  5>     print[ P_Basis ] 0
|  6>     print[ P_SCFInfo ] 1
|  7>     print[ P_SCFIterInfo ] 1
|  8>     print[ P_OrbEn ] 0
|  9>     print[ P_Cartesian ] 0
| 10> end
| 11> *xyz 0 1
| 12>  O        2.4251660000    -1.1440720000     0.4039710000
| 13>  C        2.1826090000    -0.0091540000     0.0911080000
| 14>  C        2.8894230000     0.6926980000    -0.9937800000
| 15>  N        2.5607400000     1.9308050000    -1.2674000000
| 16>  O        3.3629210000     2.3126620000    -2.2924800000
| 17>  C        4.1702650000     1.2947490000    -2.6266880000
| 18>  C        3.9257600000     0.2261130000    -1.8406060000
| 19>  H        1.4072560000     0.5936630000     0.5993660000
| 20>  H        4.8567810000     1.4854210000    -3.4362520000
| 21>  H        4.3912780000    -0.7441950000    -1.8426390000
| 22> *
| 23>
| 24>                          ****END OF INPUT****
 Total Charge           Charge          ....    0
 Multiplicity           Mult            ....    1
 Number of Electrons    NEL             ....   50
 Basis Dimension        Dim             ....  113

MULLIKEN ATOMIC CHARGES
-----------------------
   0 O :   -0.142651
   1 C :    0.168385
   2 C :   -0.061383
   3 N :   -0.004847
   4 O :   -0.131302
   5 C :    0.174635
   6 C :   -0.056061
   7 H :   -0.007122
   8 H :    0.037802
   9 H :    0.022544
Sum of atomic charges:   -0.0000000

LOEWDIN ATOMIC CHARGES
----------------------
   0 O :   -0.095773
   1 C :    0.089026
   2 C :   -0.099488
   3 N :   -0.014366
   4 O :    0.062477
   5 C :    0.042949
   6 C :   -0.067337
   7 H :    0.001215
   8 H :    0.034386
   9 H :    0.046912

  Mayer bond orders larger than 0.1
B(  0-O ,  1-C ) :   2.1855 B(  1-C ,  2-C ) :   0.9699 B(  1-C ,  7-H ) :   0.9348
B(  2-C ,  3-N ) :   1.5889 B(  2-C ,  6-C ) :   1.2174 B(  3-N ,  4-O ) :   1.0511
B(  3-N ,  5-C ) :   0.1162 B(  4-O ,  5-C ) :   1.1618 B(  5-C ,  6-C ) :   1.5484
B(  5-C ,  8-H ) :   0.9776 B(  6-C ,  9-H ) :   0.9904

FINAL SINGLE POINT ENERGY      -358.695404798373

DIPOLE MOMENT
-------------
                                X             Y             Z
Electronic contribution:     -0.71836       0.96195       0.26539
Nuclear contribution   :      1.36674      -0.87922      -0.98520
                        -----------------------------------------
Total Dipole Moment    :      0.64839       0.08273      -0.71981
                        -----------------------------------------
Magnitude (a.u.)       :      0.97230
Magnitude (Debye)      :      2.47140

                             ****ORCA TERMINATED NORMALLY****
TOTAL RUN TIME: 0 days 0 hours 0 minutes 5 seconds 203 msec
