                         Program Version 3.0.3 - RELEASE   -
|  1> ! RI PBE def2-SVP def2-SVP/J NBO PAL2
|  2> % maxcore 2000
|  3> % output
|  4>     # printlevel mini
|  5>     print[ P_Basis ] 0
|  6>     print[ P_SCFInfo ] 1
|  7>     print[ P_SCFIterInfo ] 1
|  8>     print[ P_OrbEn ] 0
|  9>     print[ P_Cartesian ] 0
| 10> end
| 11> *xyz 0 1
| 12>  O        1.4146910000     0.5580130000     0.3460610000
| 13>  C        2.3491920000    -0.1533900000     0.1102240000
| 14>  C        2.8813250000    -0.4172190000    -1.2720930000
| 15>  C        4.3419300000     0.0711450000    -1.4826040000
| 16>  C        4.6774190000    -1.4050170000    -1.7341470000
| 17>  O        5.6509060000    -2.0260370000    -2.0394730000
| 18>  N        3.3818670000    -1.7682840000    -1.4746410000
| 19>  H        2.9130800000    -0.6690580000     0.9200400000
| 20>  H        2.1700410000    -0.0644920000    -2.0222490000
| 21>  H        4.8292570000     0.4915920000    -0.6017930000
| 22>  H        4.4876150000     0.7285230000    -2.3380510000
| 23>  H        2.9043650000    -2.6511850000    -1.5733630000
| 24> *
| 25>
| 26>                          ****END OF INPUT****
 Total Charge           Charge          ....    0
 Multiplicity           Mult            ....    1
 Number of Electrons    NEL             ....   52
 Basis Dimension        Dim             ....  123

MULLIKEN ATOMIC CHARGES
-----------------------
   0 O :   -0.138881
   1 C :    0.155164
   2 C :   -0.005579
   3 C :   -0.011047
   4 C :    0.086882
   5 O :   -0.147427
   6 N :   -0.179427
   7 H :   -0.018633
   8 H :    0.031779
   9 H :    0.049627
  10 H :    0.065928
  11 H :    0.111613
Sum of atomic charges:   -0.0000000

LOEWDIN ATOMIC CHARGES
----------------------
   0 O :   -0.092802
   1 C :    0.075772
   2 C :   -0.003647
   3 C :   -0.037400
   4 C :    0.024818
   5 O :   -0.141592
   6 N :   -0.001259
   7 H :   -0.011487
   8 H :    0.028134
   9 H :    0.043532
  10 H :    0.047973
  11 H :    0.067959

  Mayer bond orders larger than 0.1
B(  0-O ,  1-C ) :   2.1969 B(  1-C ,  2-C ) :   0.9357 B(  1-C ,  7-H ) :   0.9172
B(  2-C ,  3-C ) :   1.0442 B(  2-C ,  6-N ) :   0.9842 B(  2-C ,  8-H ) :   0.9062
B(  3-C ,  4-C ) :   0.9290 B(  3-C ,  9-H ) :   0.9058 B(  3-C , 10-H ) :   0.9136
B(  4-C ,  5-O ) :   2.1889 B(  4-C ,  6-N ) :   1.1516 B(  5-O ,  6-N ) :   0.1117
B(  6-N , 11-H ) :   0.9449

FINAL SINGLE POINT ENERGY      -359.934041869277

DIPOLE MOMENT
-------------
                                X             Y             Z
Electronic contribution:     -0.15242      -1.46484       0.09402
Nuclear contribution   :     -0.28809       1.43431      -0.24583
                        -----------------------------------------
Total Dipole Moment    :     -0.44051      -0.03054      -0.15181
                        -----------------------------------------
Magnitude (a.u.)       :      0.46694
Magnitude (Debye)      :      1.18686

                             ****ORCA TERMINATED NORMALLY****
TOTAL RUN TIME: 0 days 0 hours 0 minutes 6 seconds 342 msec
