                         Program Version 3.0.3 - RELEASE   -
|  1> ! RI PBE def2-SVP def2-SVP/J NBO PAL2
|  2> % maxcore 2000
|  3> % output
|  4>     # printlevel mini
|  5>     print[ P_Basis ] 0
|  6>     print[ P_SCFInfo ] 1
|  7>     print[ P_SCFIterInfo ] 1
|  8>     print[ P_OrbEn ] 0
|  9>     print[ P_Cartesian ] 0
| 10> end
| 11> *xyz 0 1
| 12>  O        2.9069930000    -1.3399250000     0.0428130000
| 13>  C        2.5366390000     0.0226300000     0.0615760000
| 14>  C        2.8549430000     0.5968080000    -1.2924840000
| 15>  C        2.8001300000     2.1352530000    -1.4119690000
| 16>  C        4.3054510000     2.0509930000    -1.7117110000
| 17>  O        5.1791290000     2.8342910000    -1.9551780000
| 18>  N        4.2772630000     0.6925590000    -1.5955890000
| 19>  H        2.7802090000    -1.7112840000     0.9184850000
| 20>  H        3.0943200000     0.5782920000     0.8281820000
| 21>  H        1.4619430000     0.1439000000     0.2590220000
| 22>  H        2.2905030000     0.0626340000    -2.0630670000
| 23>  H        2.5612270000     2.6686730000    -0.4910160000
| 24>  H        2.2021340000     2.5260420000    -2.2340850000
| 25>  H        4.9946150000    -0.0112650000    -1.6696690000
| 26> *
| 27>
| 28>                          ****END OF INPUT****
 Total Charge           Charge          ....    0
 Multiplicity           Mult            ....    1
 Number of Electrons    NEL             ....   54
 Basis Dimension        Dim             ....  133

MULLIKEN ATOMIC CHARGES
-----------------------
   0 O :   -0.280776
   1 C :    0.226731
   2 C :   -0.040989
   3 C :    0.001384
   4 C :    0.069607
   5 O :   -0.167265
   6 N :   -0.163590
   7 H :    0.159628
   8 H :   -0.014499
   9 H :    0.006177
  10 H :    0.023018
  11 H :    0.029549
  12 H :    0.046013
  13 H :    0.105013
Sum of atomic charges:   -0.0000000

LOEWDIN ATOMIC CHARGES
----------------------
   0 O :   -0.129034
   1 C :    0.048164
   2 C :    0.021989
   3 C :   -0.051723
   4 C :    0.019144
   5 O :   -0.163147
   6 N :    0.002036
   7 H :    0.074113
   8 H :    0.005870
   9 H :    0.009869
  10 H :    0.021610
  11 H :    0.036366
  12 H :    0.040128
  13 H :    0.064612

  Mayer bond orders larger than 0.1
B(  0-O ,  1-C ) :   1.1119 B(  0-O ,  7-H ) :   0.9771 B(  1-C ,  2-C ) :   1.0484
B(  1-C ,  8-H ) :   0.9057 B(  1-C ,  9-H ) :   0.9265 B(  2-C ,  3-C ) :   1.0634
B(  2-C ,  6-N ) :   1.0312 B(  2-C , 10-H ) :   0.9053 B(  3-C ,  4-C ) :   0.9340
B(  3-C , 11-H ) :   0.9057 B(  3-C , 12-H ) :   0.9119 B(  4-C ,  5-O ) :   2.1759
B(  4-C ,  6-N ) :   1.1761 B(  5-O ,  6-N ) :   0.1152 B(  6-N , 13-H ) :   0.9432

FINAL SINGLE POINT ENERGY      -361.132986973604

DIPOLE MOMENT
-------------
                                X             Y             Z
Electronic contribution:      4.10460       1.24961      -2.14705
Nuclear contribution   :     -5.10873      -2.22449       2.95197
                        -----------------------------------------
Total Dipole Moment    :     -1.00414      -0.97489       0.80493
                        -----------------------------------------
Magnitude (a.u.)       :      1.61450
Magnitude (Debye)      :      4.10373

                             ****ORCA TERMINATED NORMALLY****
TOTAL RUN TIME: 0 days 0 hours 0 minutes 6 seconds 213 msec
