                         Program Version 3.0.3 - RELEASE   -
|  1> ! RI PBE def2-SVP def2-SVP/J NBO PAL2
|  2> % maxcore 2000
|  3> % output
|  4>     # printlevel mini
|  5>     print[ P_Basis ] 0
|  6>     print[ P_SCFInfo ] 1
|  7>     print[ P_SCFIterInfo ] 1
|  8>     print[ P_OrbEn ] 0
|  9>     print[ P_Cartesian ] 0
| 10> end
| 11> *xyz 0 1
| 12>  O        2.8684340000    -0.2480310000     1.2366400000
| 13>  C        2.0607650000    -0.4366220000     0.0948020000
| 14>  C        2.9199080000    -1.0977500000    -0.9420990000
| 15>  C        2.9886780000    -2.5849730000    -0.9816320000
| 16>  N        2.3246320000    -1.8452580000    -2.0222710000
| 17>  C        0.9709030000    -1.9300360000    -2.3002100000
| 18>  N        0.1559230000    -0.9855100000    -2.5153100000
| 19>  H        2.3830340000     0.2840340000     1.8710250000
| 20>  H        1.6853220000     0.5240610000    -0.2842870000
| 21>  H        1.1896730000    -1.0692580000     0.3099680000
| 22>  H        3.8106870000    -0.5354890000    -1.2105820000
| 23>  H        2.3720140000    -3.1168350000    -0.2614490000
| 24>  H        3.9120260000    -3.0803050000    -1.2623420000
| 25>  H        0.6250920000    -2.9601710000    -2.4162510000
| 26>  H        0.6090200000    -0.0779780000    -2.4026940000
| 27> *
| 28>
| 29>                          ****END OF INPUT****
 Total Charge           Charge          ....    0
 Multiplicity           Mult            ....    1
 Number of Electrons    NEL             ....   54
 Basis Dimension        Dim             ....  138

MULLIKEN ATOMIC CHARGES
-----------------------
   0 O :   -0.275223
   1 C :    0.223815
   2 C :   -0.096144
   3 C :    0.093047
   4 N :   -0.193736
   5 C :    0.003250
   6 N :   -0.136108
   7 H :    0.160101
   8 H :    0.005762
   9 H :    0.001040
  10 H :    0.036870
  11 H :    0.041306
  12 H :    0.042930
  13 H :    0.014026
  14 H :    0.079065
Sum of atomic charges:    0.0000000

LOEWDIN ATOMIC CHARGES
----------------------
   0 O :   -0.120782
   1 C :    0.052795
   2 C :    0.005946
   3 C :    0.032079
   4 N :   -0.063728
   5 C :    0.012923
   6 N :   -0.142640
   7 H :    0.074196
   8 H :    0.008999
   9 H :    0.009800
  10 H :    0.028281
  11 H :    0.022279
  12 H :    0.025660
  13 H :    0.014136
  14 H :    0.040056

  Mayer bond orders larger than 0.1
B(  0-O ,  1-C ) :   1.0995 B(  0-O ,  7-H ) :   0.9762 B(  1-C ,  2-C ) :   1.0568
B(  1-C ,  8-H ) :   0.9237 B(  1-C ,  9-H ) :   0.9089 B(  2-C ,  3-C ) :   1.0236
B(  2-C ,  4-N ) :   0.9383 B(  2-C , 10-H ) :   0.9314 B(  3-C ,  4-N ) :   0.9496
B(  3-C , 11-H ) :   0.9366 B(  3-C , 12-H ) :   0.9413 B(  4-N ,  5-C ) :   1.0922
B(  5-C ,  6-N ) :   1.9959 B(  5-C , 13-H ) :   0.9439 B(  6-N , 14-H ) :   0.9398

FINAL SINGLE POINT ENERGY      -341.230005617473

DIPOLE MOMENT
-------------
                                X             Y             Z
Electronic contribution:      0.23515       0.07731      -1.26910
Nuclear contribution   :      0.21686       0.07622       2.13855
                        -----------------------------------------
Total Dipole Moment    :      0.45201       0.15353       0.86944
                        -----------------------------------------
Magnitude (a.u.)       :      0.99188
Magnitude (Debye)      :      2.52115

                             ****ORCA TERMINATED NORMALLY****
TOTAL RUN TIME: 0 days 0 hours 0 minutes 6 seconds 554 msec
