                         Program Version 3.0.3 - RELEASE   -
|  1> ! RI PBE def2-SVP def2-SVP/J NBO PAL2
|  2> % maxcore 2000
|  3> % output
|  4>     # printlevel mini
|  5>     print[ P_Basis ] 0
|  6>     print[ P_SCFInfo ] 1
|  7>     print[ P_SCFIterInfo ] 1
|  8>     print[ P_OrbEn ] 0
|  9>     print[ P_Cartesian ] 0
| 10> end
| 11> *xyz 0 1
| 12>  O        2.4138390000    -0.9408120000     0.9616490000
| 13>  C        2.3462240000    -0.0563210000     0.1560360000
| 14>  C        3.1964480000     1.1611780000     0.1948370000
| 15>  C        3.7942050000     1.6722720000    -1.0889740000
| 16>  N        2.6744340000     2.3199470000    -0.4964410000
| 17>  C        2.7206650000     3.6001390000     0.0303150000
| 18>  O        3.2938230000     4.5213410000    -0.4795660000
| 19>  H        1.6380030000    -0.0864710000    -0.7000380000
| 20>  H        3.7732610000     1.3077580000     1.1037650000
| 21>  H        3.6039250000     1.1356140000    -2.0127000000
| 22>  H        4.7579680000     2.1657660000    -1.0165980000
| 23>  H        2.1134960000     3.6926880000     0.9479160000
| 24> *
| 25>
| 26>                          ****END OF INPUT****
 Total Charge           Charge          ....    0
 Multiplicity           Mult            ....    1
 Number of Electrons    NEL             ....   52
 Basis Dimension        Dim             ....  123

MULLIKEN ATOMIC CHARGES
-----------------------
   0 O :   -0.140123
   1 C :    0.187935
   2 C :   -0.074336
   3 C :    0.107326
   4 N :   -0.207693
   5 C :    0.154678
   6 O :   -0.178016
   7 H :   -0.011027
   8 H :    0.043660
   9 H :    0.052479
  10 H :    0.064666
  11 H :    0.000452
Sum of atomic charges:    0.0000000

LOEWDIN ATOMIC CHARGES
----------------------
   0 O :   -0.091900
   1 C :    0.083891
   2 C :   -0.013502
   3 C :    0.052663
   4 N :   -0.056787
   5 C :    0.067682
   6 O :   -0.127653
   7 H :   -0.005585
   8 H :    0.032797
   9 H :    0.031512
  10 H :    0.033710
  11 H :   -0.006828

  Mayer bond orders larger than 0.1
B(  0-O ,  1-C ) :   2.1880 B(  1-C ,  2-C ) :   0.9682 B(  1-C ,  7-H ) :   0.9224
B(  2-C ,  3-C ) :   0.9718 B(  2-C ,  4-N ) :   0.8483 B(  2-C ,  8-H ) :   0.9373
B(  3-C ,  4-N ) :   0.9659 B(  3-C ,  9-H ) :   0.9408 B(  3-C , 10-H ) :   0.9378
B(  4-N ,  5-C ) :   1.0867 B(  5-C ,  6-O ) :   2.1110 B(  5-C , 11-H ) :   0.9306

FINAL SINGLE POINT ENERGY      -359.899782676402

DIPOLE MOMENT
-------------
                                X             Y             Z
Electronic contribution:     -0.98627       0.31183       0.94896
Nuclear contribution   :      1.19070      -0.55703      -1.11964
                        -----------------------------------------
Total Dipole Moment    :      0.20442      -0.24520      -0.17067
                        -----------------------------------------
Magnitude (a.u.)       :      0.36200
Magnitude (Debye)      :      0.92012

                             ****ORCA TERMINATED NORMALLY****
TOTAL RUN TIME: 0 days 0 hours 0 minutes 5 seconds 934 msec
