                         Program Version 3.0.3 - RELEASE   -
|  1> ! RI PBE def2-SVP def2-SVP/J NBO PAL2
|  2> % maxcore 2000
|  3> % output
|  4>     # printlevel mini
|  5>     print[ P_Basis ] 0
|  6>     print[ P_SCFInfo ] 1
|  7>     print[ P_SCFIterInfo ] 1
|  8>     print[ P_OrbEn ] 0
|  9>     print[ P_Cartesian ] 0
| 10> end
| 11> *xyz 0 1
| 12>  O        5.7315040000     0.0442110000    -0.5184830000
| 13>  C        4.5108600000     0.6051560000    -0.0921860000
| 14>  C        3.9657180000    -0.2798520000     0.9885190000
| 15>  C        4.3682960000    -0.0380140000     2.4061590000
| 16>  N        3.0429240000     0.2623980000     1.9526370000
| 17>  C        2.4780480000     1.5137020000     1.9370160000
| 18>  O        2.5878730000     2.3316260000     2.8126080000
| 19>  H        6.0357790000     0.5185380000    -1.2954250000
| 20>  H        3.7926000000     0.6639220000    -0.9216410000
| 21>  H        4.6465970000     1.6208290000     0.3086290000
| 22>  H        3.7643510000    -1.3026600000     0.6811090000
| 23>  H        5.0207150000     0.8062860000     2.6075740000
| 24>  H        4.4616590000    -0.8779000000     3.0853720000
| 25>  H        1.8333870000     1.6681680000     1.0517130000
| 26> *
| 27>
| 28>                          ****END OF INPUT****
 Total Charge           Charge          ....    0
 Multiplicity           Mult            ....    1
 Number of Electrons    NEL             ....   54
 Basis Dimension        Dim             ....  133

MULLIKEN ATOMIC CHARGES
-----------------------
   0 O :   -0.273518
   1 C :    0.217315
   2 C :   -0.085085
   3 C :    0.088354
   4 N :   -0.187090
   5 C :    0.131231
   6 O :   -0.195672
   7 H :    0.161451
   8 H :    0.015624
   9 H :    0.001590
  10 H :    0.036685
  11 H :    0.050386
  12 H :    0.052100
  13 H :   -0.013370
Sum of atomic charges:    0.0000000

LOEWDIN ATOMIC CHARGES
----------------------
   0 O :   -0.119809
   1 C :    0.051528
   2 C :    0.014575
   3 C :    0.036536
   4 N :   -0.049930
   5 C :    0.046835
   6 O :   -0.150243
   7 H :    0.075099
   8 H :    0.012484
   9 H :    0.011100
  10 H :    0.028074
  11 H :    0.026948
  12 H :    0.031549
  13 H :   -0.014748

  Mayer bond orders larger than 0.1
B(  0-O ,  1-C ) :   1.1014 B(  0-O ,  7-H ) :   0.9750 B(  1-C ,  2-C ) :   1.0628
B(  1-C ,  8-H ) :   0.9267 B(  1-C ,  9-H ) :   0.9069 B(  2-C ,  3-C ) :   1.0206
B(  2-C ,  4-N ) :   0.9241 B(  2-C , 10-H ) :   0.9305 B(  3-C ,  4-N ) :   0.9588
B(  3-C , 11-H ) :   0.9383 B(  3-C , 12-H ) :   0.9412 B(  4-N ,  5-C ) :   1.1221
B(  5-C ,  6-O ) :   2.0881 B(  5-C , 13-H ) :   0.9249

FINAL SINGLE POINT ENERGY      -361.093914649493

DIPOLE MOMENT
-------------
                                X             Y             Z
Electronic contribution:     -1.94905       1.00093       2.24113
Nuclear contribution   :      2.42884      -1.39636      -3.43466
                        -----------------------------------------
Total Dipole Moment    :      0.47979      -0.39543      -1.19352
                        -----------------------------------------
Magnitude (a.u.)       :      1.34576
Magnitude (Debye)      :      3.42064

                             ****ORCA TERMINATED NORMALLY****
TOTAL RUN TIME: 0 days 0 hours 0 minutes 6 seconds 654 msec
