                         Program Version 3.0.3 - RELEASE   -
|  1> ! RI PBE def2-SVP def2-SVP/J NBO PAL2
|  2> % maxcore 2000
|  3> % output
|  4>     # printlevel mini
|  5>     print[ P_Basis ] 0
|  6>     print[ P_SCFInfo ] 1
|  7>     print[ P_SCFIterInfo ] 1
|  8>     print[ P_OrbEn ] 0
|  9>     print[ P_Cartesian ] 0
| 10> end
| 11> *xyz 0 1
| 12>  O        0.3242300000    -0.5669870000    -0.1946790000
| 13>  C        1.6815220000    -0.2545990000    -0.4482130000
| 14>  C        2.4959530000    -1.1321910000     0.4549840000
| 15>  C        3.1234140000    -2.3634480000    -0.0356200000
| 16>  N        3.9591840000    -1.2080650000     0.3302530000
| 17>  N        4.4255010000    -0.5417900000    -0.8325990000
| 18>  C        5.6332790000    -0.1936660000    -0.7232720000
| 19>  H       -0.2228380000     0.0073260000    -0.7346050000
| 20>  H        1.8940930000     0.7989170000    -0.2169430000
| 21>  H        1.9503800000    -0.4270410000    -1.4941060000
| 22>  H        2.1806540000    -1.0890920000     1.4935000000
| 23>  H        3.0360050000    -2.5671890000    -1.0976700000
| 24>  H        3.2508410000    -3.2277690000     0.6052450000
| 25>  H        6.0905870000     0.3203580000    -1.5641210000
| 26>  H        6.2180860000    -0.3932630000     0.1767540000
| 27> *
| 28>
| 29>                          ****END OF INPUT****
 Total Charge           Charge          ....    0
 Multiplicity           Mult            ....    1
 Number of Electrons    NEL             ....   54
 Basis Dimension        Dim             ....  138

MULLIKEN ATOMIC CHARGES
-----------------------
   0 O :   -0.280784
   1 C :    0.253365
   2 C :   -0.092749
   3 C :    0.084391
   4 N :   -0.223695
   5 N :   -0.101251
   6 C :    0.021231
   7 H :    0.156627
   8 H :   -0.000464
   9 H :   -0.004608
  10 H :    0.035650
  11 H :    0.033892
  12 H :    0.044377
  13 H :    0.046323
  14 H :    0.027695
Sum of atomic charges:    0.0000000

LOEWDIN ATOMIC CHARGES
----------------------
   0 O :   -0.128277
   1 C :    0.053926
   2 C :   -0.011663
   3 C :    0.011942
   4 N :   -0.072815
   5 N :   -0.035536
   6 C :   -0.002154
   7 H :    0.071172
   8 H :    0.008527
   9 H :    0.006900
  10 H :    0.028739
  11 H :    0.020498
  12 H :    0.026193
  13 H :    0.020609
  14 H :    0.001938

  Mayer bond orders larger than 0.1
B(  0-O ,  1-C ) :   1.0933 B(  0-O ,  7-H ) :   0.9775 B(  1-C ,  2-C ) :   1.0536
B(  1-C ,  8-H ) :   0.9174 B(  1-C ,  9-H ) :   0.9109 B(  2-C ,  3-C ) :   1.0577
B(  2-C ,  4-N ) :   0.9035 B(  2-C , 10-H ) :   0.9310 B(  3-C ,  4-N ) :   0.9317
B(  3-C , 11-H ) :   0.9315 B(  3-C , 12-H ) :   0.9437 B(  4-N ,  5-N ) :   0.9583
B(  5-N ,  6-C ) :   1.9855 B(  6-C , 13-H ) :   0.9488 B(  6-C , 14-H ) :   0.9240

FINAL SINGLE POINT ENERGY      -341.191415406637

DIPOLE MOMENT
-------------
                                X             Y             Z
Electronic contribution:     -0.11426      -0.09644       0.61028
Nuclear contribution   :      0.18024       0.39891      -1.00469
                        -----------------------------------------
Total Dipole Moment    :      0.06598       0.30246      -0.39440
                        -----------------------------------------
Magnitude (a.u.)       :      0.50139
Magnitude (Debye)      :      1.27442

                             ****ORCA TERMINATED NORMALLY****
TOTAL RUN TIME: 0 days 0 hours 0 minutes 6 seconds 682 msec
