                         Program Version 3.0.3 - RELEASE   -
|  1> ! RI PBE def2-SVP def2-SVP/J NBO PAL2
|  2> % maxcore 2000
|  3> % output
|  4>     # printlevel mini
|  5>     print[ P_Basis ] 0
|  6>     print[ P_SCFInfo ] 1
|  7>     print[ P_SCFIterInfo ] 1
|  8>     print[ P_OrbEn ] 0
|  9>     print[ P_Cartesian ] 0
| 10> end
| 11> *xyz 0 1
| 12>  O        1.3892020000     0.2957770000     1.0875250000
| 13>  C        1.8911300000    -0.1515690000     0.0931290000
| 14>  C        3.0752300000    -1.0664390000     0.0811750000
| 15>  C        3.6051040000    -1.5690850000     1.4322010000
| 16>  N        3.2045860000    -2.9113820000     1.0200020000
| 17>  C        2.7113800000    -2.5602400000    -0.1939300000
| 18>  O        2.2064350000    -3.1608240000    -1.0956320000
| 19>  H        1.4788760000     0.0780390000    -0.9098820000
| 20>  H        3.8247340000    -0.7067960000    -0.6279980000
| 21>  H        3.0549100000    -1.1787570000     2.2889530000
| 22>  H        4.6806650000    -1.4510590000     1.5760650000
| 23>  H        3.2430480000    -3.8062660000     1.4818020000
| 24> *
| 25>
| 26>                          ****END OF INPUT****
 Total Charge           Charge          ....    0
 Multiplicity           Mult            ....    1
 Number of Electrons    NEL             ....   52
 Basis Dimension        Dim             ....  123

MULLIKEN ATOMIC CHARGES
-----------------------
   0 O :   -0.162461
   1 C :    0.165275
   2 C :   -0.289813
   3 C :    0.253963
   4 N :   -0.209281
   5 C :    0.146878
   6 O :   -0.147532
   7 H :    0.006952
   8 H :    0.063786
   9 H :    0.032310
  10 H :    0.027239
  11 H :    0.112683
Sum of atomic charges:    0.0000000

LOEWDIN ATOMIC CHARGES
----------------------
   0 O :   -0.105310
   1 C :    0.101047
   2 C :   -0.106160
   3 C :    0.057387
   4 N :    0.002393
   5 C :    0.031069
   6 O :   -0.145887
   7 H :   -0.000675
   8 H :    0.052601
   9 H :    0.022416
  10 H :    0.022617
  11 H :    0.068502

  Mayer bond orders larger than 0.1
B(  0-O ,  1-C ) :   2.1817 B(  1-C ,  2-C ) :   0.9243 B(  1-C ,  7-H ) :   0.9309
B(  2-C ,  3-C ) :   1.0435 B(  2-C ,  5-C ) :   0.8392 B(  2-C ,  8-H ) :   0.8737
B(  3-C ,  4-N ) :   1.0132 B(  3-C ,  9-H ) :   0.9227 B(  3-C , 10-H ) :   0.9272
B(  4-N ,  5-C ) :   1.2164 B(  4-N ,  6-O ) :   0.1181 B(  4-N , 11-H ) :   0.9411
B(  5-C ,  6-O ) :   2.1847

FINAL SINGLE POINT ENERGY      -359.935887328572

DIPOLE MOMENT
-------------
                                X             Y             Z
Electronic contribution:     -2.13756      -0.94675      -1.37094
Nuclear contribution   :      3.21571       0.84758       1.91141
                        -----------------------------------------
Total Dipole Moment    :      1.07815      -0.09917       0.54047
                        -----------------------------------------
Magnitude (a.u.)       :      1.21010
Magnitude (Debye)      :      3.07583

                             ****ORCA TERMINATED NORMALLY****
TOTAL RUN TIME: 0 days 0 hours 0 minutes 5 seconds 811 msec
