                         Program Version 3.0.3 - RELEASE   -
|  1> ! RI PBE def2-SVP def2-SVP/J NBO PAL2
|  2> % maxcore 2000
|  3> % output
|  4>     # printlevel mini
|  5>     print[ P_Basis ] 0
|  6>     print[ P_SCFInfo ] 1
|  7>     print[ P_SCFIterInfo ] 1
|  8>     print[ P_OrbEn ] 0
|  9>     print[ P_Cartesian ] 0
| 10> end
| 11> *xyz 0 1
| 12>  O        1.0939590000     0.1414410000     0.0443130000
| 13>  C        2.4646600000    -0.1646270000     0.1350910000
| 14>  C        2.8630970000    -0.9303380000    -1.1030910000
| 15>  C        4.3530680000    -1.3261980000    -1.2134540000
| 16>  N        3.9195790000    -2.7140580000    -1.2283120000
| 17>  C        2.5840330000    -2.4489320000    -1.1126450000
| 18>  O        1.6214290000    -3.1571750000    -1.0402350000
| 19>  H        0.7679390000     0.3788000000     0.9146000000
| 20>  H        2.6866210000    -0.7675220000     1.0267650000
| 21>  H        3.0693650000     0.7530180000     0.1968800000
| 22>  H        2.4704260000    -0.4305870000    -1.9909550000
| 23>  H        4.9596940000    -1.0576670000    -0.3430290000
| 24>  H        4.8560370000    -0.9983690000    -2.1262020000
| 25>  H        4.4257920000    -3.5834750000    -1.2845150000
| 26> *
| 27>
| 28>                          ****END OF INPUT****
 Total Charge           Charge          ....    0
 Multiplicity           Mult            ....    1
 Number of Electrons    NEL             ....   54
 Basis Dimension        Dim             ....  133

MULLIKEN ATOMIC CHARGES
-----------------------
   0 O :   -0.266787
   1 C :    0.229936
   2 C :   -0.292281
   3 C :    0.226163
   4 N :   -0.212085
   5 C :    0.138379
   6 O :   -0.159543
   7 H :    0.158100
   8 H :   -0.004103
   9 H :    0.001296
  10 H :    0.044028
  11 H :    0.013238
  12 H :    0.023201
  13 H :    0.100459
Sum of atomic charges:   -0.0000000

LOEWDIN ATOMIC CHARGES
----------------------
   0 O :   -0.116699
   1 C :    0.064725
   2 C :   -0.069094
   3 C :    0.046760
   4 N :   -0.009998
   5 C :    0.020873
   6 O :   -0.156779
   7 H :    0.074233
   8 H :    0.007652
   9 H :    0.004144
  10 H :    0.040010
  11 H :    0.014976
  12 H :    0.018878
  13 H :    0.060318

  Mayer bond orders larger than 0.1
B(  0-O ,  1-C ) :   1.1204 B(  0-O ,  7-H ) :   0.9777 B(  1-C ,  2-C ) :   1.0206
B(  1-C ,  8-H ) :   0.9261 B(  1-C ,  9-H ) :   0.9312 B(  2-C ,  3-C ) :   1.0328
B(  2-C ,  5-C ) :   0.8832 B(  2-C , 10-H ) :   0.8873 B(  3-C ,  4-N ) :   1.0280
B(  3-C , 11-H ) :   0.9297 B(  3-C , 12-H ) :   0.9280 B(  4-N ,  5-C ) :   1.1728
B(  4-N ,  6-O ) :   0.1139 B(  4-N , 13-H ) :   0.9382 B(  5-C ,  6-O ) :   2.2007

FINAL SINGLE POINT ENERGY      -361.126675994743

DIPOLE MOMENT
-------------
                                X             Y             Z
Electronic contribution:     -2.89616      -3.76727      -1.11166
Nuclear contribution   :      4.28973       4.41600       1.58011
                        -----------------------------------------
Total Dipole Moment    :      1.39358       0.64873       0.46845
                        -----------------------------------------
Magnitude (a.u.)       :      1.60697
Magnitude (Debye)      :      4.08459

                             ****ORCA TERMINATED NORMALLY****
TOTAL RUN TIME: 0 days 0 hours 0 minutes 6 seconds 12 msec
