                         Program Version 3.0.3 - RELEASE   -
|  1> ! RI PBE def2-SVP def2-SVP/J NBO PAL2
|  2> % maxcore 2000
|  3> % output
|  4>     # printlevel mini
|  5>     print[ P_Basis ] 0
|  6>     print[ P_SCFInfo ] 1
|  7>     print[ P_SCFIterInfo ] 1
|  8>     print[ P_OrbEn ] 0
|  9>     print[ P_Cartesian ] 0
| 10> end
| 11> *xyz 0 1
| 12>  O        2.5552560000     1.0604170000    -0.3761660000
| 13>  C        2.2419140000    -0.0737520000    -0.0723430000
| 14>  C        2.9754990000    -1.2520750000    -0.4249280000
| 15>  C        2.6467340000    -2.5107830000    -0.0551210000
| 16>  N        3.5536290000    -3.4324030000    -0.4681350000
| 17>  C        4.4465790000    -2.8117960000    -1.4506190000
| 18>  C        4.2798700000    -1.3062760000    -1.1789800000
| 19>  H        1.3180660000    -0.2641440000     0.5183780000
| 20>  H        1.7916590000    -2.8153790000     0.5364680000
| 21>  H        3.2914680000    -4.3987300000    -0.5627960000
| 22>  H        4.1204230000    -3.0653770000    -2.4667450000
| 23>  H        5.4714480000    -3.1624950000    -1.3227510000
| 24>  H        4.2659590000    -0.7141570000    -2.0944970000
| 25>  H        5.0944870000    -0.9182490000    -0.5583640000
| 26> *
| 27>
| 28>                          ****END OF INPUT****
 Total Charge           Charge          ....    0
 Multiplicity           Mult            ....    1
 Number of Electrons    NEL             ....   52
 Basis Dimension        Dim             ....  133

MULLIKEN ATOMIC CHARGES
-----------------------
   0 O :   -0.205694
   1 C :    0.111692
   2 C :   -0.193238
   3 C :    0.092113
   4 N :   -0.170810
   5 C :    0.115906
   6 C :    0.066176
   7 H :   -0.059126
   8 H :    0.004118
   9 H :    0.121464
  10 H :    0.023785
  11 H :    0.023799
  12 H :    0.033526
  13 H :    0.036289
Sum of atomic charges:    0.0000000

LOEWDIN ATOMIC CHARGES
----------------------
   0 O :   -0.164411
   1 C :    0.042370
   2 C :   -0.145297
   3 C :    0.044067
   4 N :    0.009846
   5 C :    0.039034
   6 C :   -0.024318
   7 H :   -0.022210
   8 H :    0.027951
   9 H :    0.073533
  10 H :    0.019710
  11 H :    0.024240
  12 H :    0.038605
  13 H :    0.036880

  Mayer bond orders larger than 0.1
B(  0-O ,  1-C ) :   2.0910 B(  1-C ,  2-C ) :   1.1241 B(  1-C ,  7-H ) :   0.9314
B(  2-C ,  3-C ) :   1.5262 B(  2-C ,  4-N ) :   0.1018 B(  2-C ,  6-C ) :   1.0679
B(  3-C ,  4-N ) :   1.2341 B(  3-C ,  8-H ) :   0.9712 B(  4-N ,  5-C ) :   0.9954
B(  4-N ,  9-H ) :   0.9356 B(  5-C ,  6-C ) :   1.1010 B(  5-C , 10-H ) :   0.9388
B(  5-C , 11-H ) :   0.9431 B(  6-C , 12-H ) :   0.9206 B(  6-C , 13-H ) :   0.9135

FINAL SINGLE POINT ENERGY      -324.065836111694

DIPOLE MOMENT
-------------
                                X             Y             Z
Electronic contribution:     -2.19902       2.58788       1.53343
Nuclear contribution   :      2.44392      -4.75355      -1.73831
                        -----------------------------------------
Total Dipole Moment    :      0.24490      -2.16567      -0.20488
                        -----------------------------------------
Magnitude (a.u.)       :      2.18908
Magnitude (Debye)      :      5.56419

                             ****ORCA TERMINATED NORMALLY****
TOTAL RUN TIME: 0 days 0 hours 0 minutes 6 seconds 600 msec
