                         Program Version 3.0.3 - RELEASE   -
|  1> ! RI PBE def2-SVP def2-SVP/J NBO PAL2
|  2> % maxcore 2000
|  3> % output
|  4>     # printlevel mini
|  5>     print[ P_Basis ] 0
|  6>     print[ P_SCFInfo ] 1
|  7>     print[ P_SCFIterInfo ] 1
|  8>     print[ P_OrbEn ] 0
|  9>     print[ P_Cartesian ] 0
| 10> end
| 11> *xyz 0 1
| 12>  O        2.6193890000     1.2079850000     0.0339960000
| 13>  C        2.1796610000     0.0925920000     0.0265420000
| 14>  C        2.8930270000    -1.0961020000    -0.5560910000
| 15>  C        3.4336750000    -2.0310930000     0.5665560000
| 16>  N        3.1380130000    -3.3914030000     0.1299480000
| 17>  C        2.3484590000    -3.2841970000    -0.8553710000
| 18>  N        1.9838780000    -2.0059860000    -1.2370890000
| 19>  H        1.1987570000    -0.1541340000     0.4894880000
| 20>  H        3.6993960000    -0.7408580000    -1.2067740000
| 21>  H        2.9200710000    -1.8442380000     1.5177370000
| 22>  H        4.5007600000    -1.8886610000     0.7384320000
| 23>  H        1.9244660000    -4.1354720000    -1.3796640000
| 24>  H        1.7681470000    -1.8358250000    -2.2067100000
| 25> *
| 26>
| 27>                          ****END OF INPUT****
 Total Charge           Charge          ....    0
 Multiplicity           Mult            ....    1
 Number of Electrons    NEL             ....   52
 Basis Dimension        Dim             ....  128

MULLIKEN ATOMIC CHARGES
-----------------------
   0 O :   -0.148885
   1 C :    0.136296
   2 C :   -0.056613
   3 C :    0.160161
   4 N :   -0.224765
   5 C :    0.107397
   6 N :   -0.185965
   7 H :   -0.017411
   8 H :    0.025611
   9 H :    0.023766
  10 H :    0.038919
  11 H :    0.019152
  12 H :    0.122337
Sum of atomic charges:   -0.0000000

LOEWDIN ATOMIC CHARGES
----------------------
   0 O :   -0.101749
   1 C :    0.075738
   2 C :   -0.031187
   3 C :    0.025137
   4 N :   -0.136147
   5 C :    0.029473
   6 N :   -0.029268
   7 H :   -0.012811
   8 H :    0.024887
   9 H :    0.028866
  10 H :    0.032903
  11 H :    0.020888
  12 H :    0.073271

  Mayer bond orders larger than 0.1
B(  0-O ,  1-C ) :   2.1902 B(  1-C ,  2-C ) :   0.9435 B(  1-C ,  7-H ) :   0.9143
B(  2-C ,  3-C ) :   1.0106 B(  2-C ,  6-N ) :   0.9773 B(  2-C ,  8-H ) :   0.9008
B(  3-C ,  4-N ) :   1.0703 B(  3-C ,  9-H ) :   0.9196 B(  3-C , 10-H ) :   0.9360
B(  4-N ,  5-C ) :   1.8678 B(  4-N ,  6-N ) :   0.1229 B(  5-C ,  6-N ) :   1.1259
B(  5-C , 11-H ) :   0.9598 B(  6-N , 12-H ) :   0.9378

FINAL SINGLE POINT ENERGY      -340.079530785146

DIPOLE MOMENT
-------------
                                X             Y             Z
Electronic contribution:     -0.43795       1.39646      -0.45713
Nuclear contribution   :      0.09239      -1.72154      -0.37844
                        -----------------------------------------
Total Dipole Moment    :     -0.34556      -0.32509      -0.83556
                        -----------------------------------------
Magnitude (a.u.)       :      0.96086
Magnitude (Debye)      :      2.44232

                             ****ORCA TERMINATED NORMALLY****
TOTAL RUN TIME: 0 days 0 hours 0 minutes 6 seconds 424 msec
