                         Program Version 3.0.3 - RELEASE   -
|  1> ! RI PBE def2-SVP def2-SVP/J NBO PAL2
|  2> % maxcore 2000
|  3> % output
|  4>     # printlevel mini
|  5>     print[ P_Basis ] 0
|  6>     print[ P_SCFInfo ] 1
|  7>     print[ P_SCFIterInfo ] 1
|  8>     print[ P_OrbEn ] 0
|  9>     print[ P_Cartesian ] 0
| 10> end
| 11> *xyz 0 1
| 12>  O        0.9433060000     0.0795470000     0.1096450000
| 13>  C        2.2647220000     0.0810070000     0.0429830000
| 14>  C        2.9506810000     0.4274810000    -1.0677450000
| 15>  C        4.3900620000     0.4431970000    -1.1843290000
| 16>  N        4.7208120000     0.8226480000    -2.3810330000
| 17>  C        3.4867750000     1.0393940000    -2.9976340000
| 18>  N        2.4236280000     0.8268180000    -2.2860130000
| 19>  H        0.6486930000    -0.1964220000     0.9825170000
| 20>  H        2.8119890000    -0.2140230000     0.9356070000
| 21>  H        5.1192880000     0.1879200000    -0.4240120000
| 22>  H        3.4450350000     1.3710230000    -4.0279770000
| 23> *
| 24>
| 25>                          ****END OF INPUT****
 Total Charge           Charge          ....    0
 Multiplicity           Mult            ....    1
 Number of Electrons    NEL             ....   50
 Basis Dimension        Dim             ....  118

MULLIKEN ATOMIC CHARGES
-----------------------
   0 O :   -0.073566
   1 C :    0.070206
   2 C :   -0.024584
   3 C :    0.014523
   4 N :   -0.133539
   5 C :    0.071112
   6 N :   -0.120362
   7 H :    0.190774
   8 H :    0.010546
   9 H :   -0.008258
  10 H :    0.003147
Sum of atomic charges:   -0.0000000

LOEWDIN ATOMIC CHARGES
----------------------
   0 O :    0.050489
   1 C :    0.089672
   2 C :   -0.095853
   3 C :   -0.002729
   4 N :   -0.107191
   5 C :    0.018993
   6 N :   -0.111133
   7 H :    0.103204
   8 H :    0.025497
   9 H :    0.016665
  10 H :    0.012384

  Mayer bond orders larger than 0.1
B(  0-O ,  1-C ) :   1.3451 B(  0-O ,  7-H ) :   0.9545 B(  1-C ,  2-C ) :   1.5335
B(  1-C ,  8-H ) :   0.9332 B(  2-C ,  3-C ) :   1.0774 B(  2-C ,  6-N ) :   1.2786
B(  3-C ,  4-N ) :   1.7545 B(  3-C ,  9-H ) :   0.9763 B(  4-N ,  5-C ) :   1.2337
B(  5-C ,  6-N ) :   1.7015 B(  5-C , 10-H ) :   0.9683

FINAL SINGLE POINT ENERGY      -338.872566719986

DIPOLE MOMENT
-------------
                                X             Y             Z
Electronic contribution:     -0.79228       0.22985      -0.67928
Nuclear contribution   :      0.14605      -0.85674       2.65994
                        -----------------------------------------
Total Dipole Moment    :     -0.64623      -0.62689       1.98066
                        -----------------------------------------
Magnitude (a.u.)       :      2.17568
Magnitude (Debye)      :      5.53015

                             ****ORCA TERMINATED NORMALLY****
TOTAL RUN TIME: 0 days 0 hours 0 minutes 6 seconds 212 msec
