                         Program Version 3.0.3 - RELEASE   -
|  1> ! RI PBE def2-SVP def2-SVP/J NBO PAL2
|  2> % maxcore 2000
|  3> % output
|  4>     # printlevel mini
|  5>     print[ P_Basis ] 0
|  6>     print[ P_SCFInfo ] 1
|  7>     print[ P_SCFIterInfo ] 1
|  8>     print[ P_OrbEn ] 0
|  9>     print[ P_Cartesian ] 0
| 10> end
| 11> *xyz 0 1
| 12>  O        3.0236930000     1.1304750000     0.2215380000
| 13>  C        2.2755230000    -0.0529640000     0.0193160000
| 14>  C        3.2230510000    -1.2300330000     0.1265250000
| 15>  C        2.5542510000    -2.5555340000    -0.2909110000
| 16>  N        2.9759340000    -2.8046700000    -1.6712580000
| 17>  C        3.9187080000    -1.9808840000    -1.8944330000
| 18>  N        4.2918350000    -1.1483730000    -0.8642390000
| 19>  H        2.4564280000     1.8884690000     0.0662700000
| 20>  H        1.8043800000    -0.0603740000    -0.9736340000
| 21>  H        1.4858290000    -0.1606460000     0.7754970000
| 22>  H        3.6385380000    -1.2629120000     1.1366890000
| 23>  H        1.4631380000    -2.5131420000    -0.2219550000
| 24>  H        2.8861580000    -3.3864050000     0.3404510000
| 25>  H        4.4590420000    -1.9392310000    -2.8360980000
| 26>  H        4.6594820000    -0.2320770000    -1.0718680000
| 27> *
| 28>
| 29>                          ****END OF INPUT****
 Total Charge           Charge          ....    0
 Multiplicity           Mult            ....    1
 Number of Electrons    NEL             ....   54
 Basis Dimension        Dim             ....  138

MULLIKEN ATOMIC CHARGES
-----------------------
   0 O :   -0.282189
   1 C :    0.197780
   2 C :   -0.087212
   3 C :    0.139683
   4 N :   -0.235538
   5 C :    0.091663
   6 N :   -0.159900
   7 H :    0.160165
   8 H :   -0.000758
   9 H :    0.006743
  10 H :    0.012642
  11 H :    0.011500
  12 H :    0.023775
  13 H :    0.008442
  14 H :    0.113205
Sum of atomic charges:   -0.0000000

LOEWDIN ATOMIC CHARGES
----------------------
   0 O :   -0.128460
   1 C :    0.048610
   2 C :   -0.006681
   3 C :    0.010854
   4 N :   -0.158430
   5 C :    0.016635
   6 N :   -0.024084
   7 H :    0.074199
   8 H :    0.007768
   9 H :    0.008767
  10 H :    0.022724
  11 H :    0.021900
  12 H :    0.026629
  13 H :    0.015217
  14 H :    0.064351

  Mayer bond orders larger than 0.1
B(  0-O ,  1-C ) :   1.0854 B(  0-O ,  7-H ) :   0.9769 B(  1-C ,  2-C ) :   1.0396
B(  1-C ,  8-H ) :   0.9185 B(  1-C ,  9-H ) :   0.9280 B(  2-C ,  3-C ) :   1.0377
B(  2-C ,  6-N ) :   1.0422 B(  2-C , 10-H ) :   0.9104 B(  3-C ,  4-N ) :   1.0697
B(  3-C , 11-H ) :   0.9355 B(  3-C , 12-H ) :   0.9212 B(  4-N ,  5-C ) :   1.8425
B(  4-N ,  6-N ) :   0.1228 B(  5-C ,  6-N ) :   1.1493 B(  5-C , 13-H ) :   0.9613
B(  6-N , 14-H ) :   0.9260

FINAL SINGLE POINT ENERGY      -341.278688533211

DIPOLE MOMENT
-------------
                                X             Y             Z
Electronic contribution:      2.07806      -0.29378      -1.54372
Nuclear contribution   :     -2.32034       1.44613       1.83546
                        -----------------------------------------
Total Dipole Moment    :     -0.24228       1.15236       0.29174
                        -----------------------------------------
Magnitude (a.u.)       :      1.21315
Magnitude (Debye)      :      3.08358

                             ****ORCA TERMINATED NORMALLY****
TOTAL RUN TIME: 0 days 0 hours 0 minutes 6 seconds 921 msec
