                         Program Version 3.0.3 - RELEASE   -
|  1> ! RI PBE def2-SVP def2-SVP/J NBO PAL2
|  2> % maxcore 2000
|  3> % output
|  4>     # printlevel mini
|  5>     print[ P_Basis ] 0
|  6>     print[ P_SCFInfo ] 1
|  7>     print[ P_SCFIterInfo ] 1
|  8>     print[ P_OrbEn ] 0
|  9>     print[ P_Cartesian ] 0
| 10> end
| 11> *xyz 0 1
| 12>  O        2.2459750000    -0.9379310000    -1.0019600000
| 13>  C        2.2160400000     0.1068180000    -0.0470470000
| 14>  C        2.7875220000     1.3250800000    -0.6869910000
| 15>  C        3.0141510000     2.6031510000    -0.2527940000
| 16>  N        3.5691410000     3.3574210000    -1.2499890000
| 17>  C        3.6783660000     2.5521610000    -2.2735890000
| 18>  N        3.2185060000     1.3116020000    -1.9817480000
| 19>  H        1.8770610000    -1.7296110000    -0.6062370000
| 20>  H        2.8036030000    -0.1594100000     0.8414830000
| 21>  H        1.1874540000     0.3046390000     0.2825100000
| 22>  H        2.8083330000     3.0202440000     0.7215910000
| 23>  H        4.0794820000     2.8097890000    -3.2423220000
| 24>  H        3.1830660000     0.5017470000    -2.5771150000
| 25> *
| 26>
| 27>                          ****END OF INPUT****
 Total Charge           Charge          ....    0
 Multiplicity           Mult            ....    1
 Number of Electrons    NEL             ....   52
 Basis Dimension        Dim             ....  128

MULLIKEN ATOMIC CHARGES
-----------------------
   0 O :   -0.291128
   1 C :    0.264166
   2 C :   -0.105664
   3 C :   -0.044664
   4 N :   -0.143231
   5 C :    0.071511
   6 N :   -0.041008
   7 H :    0.164667
   8 H :    0.017043
   9 H :    0.016333
  10 H :   -0.026168
  11 H :    0.001846
  12 H :    0.116298
Sum of atomic charges:   -0.0000000

LOEWDIN ATOMIC CHARGES
----------------------
   0 O :   -0.129252
   1 C :    0.065485
   2 C :   -0.068162
   3 C :   -0.067016
   4 N :   -0.110041
   5 C :   -0.019839
   6 N :    0.104709
   7 H :    0.077502
   8 H :    0.019073
   9 H :    0.018934
  10 H :    0.013404
  11 H :    0.012892
  12 H :    0.082312

  Mayer bond orders larger than 0.1
B(  0-O ,  1-C ) :   1.1024 B(  0-O ,  7-H ) :   0.9710 B(  1-C ,  2-C ) :   1.0256
B(  1-C ,  8-H ) :   0.9195 B(  1-C ,  9-H ) :   0.9181 B(  2-C ,  3-C ) :   1.4877
B(  2-C ,  5-C ) :   0.1046 B(  2-C ,  6-N ) :   1.2581 B(  3-C ,  4-N ) :   1.4099
B(  3-C , 10-H ) :   1.0011 B(  4-N ,  5-C ) :   1.6377 B(  5-C ,  6-N ) :   1.2153
B(  5-C , 11-H ) :   0.9708 B(  6-N , 12-H ) :   0.9198

FINAL SINGLE POINT ENERGY      -340.097997003807

DIPOLE MOMENT
-------------
                                X             Y             Z
Electronic contribution:      1.03778       1.61661      -1.66618
Nuclear contribution   :     -1.55080      -3.27529       1.72707
                        -----------------------------------------
Total Dipole Moment    :     -0.51302      -1.65868       0.06089
                        -----------------------------------------
Magnitude (a.u.)       :      1.73727
Magnitude (Debye)      :      4.41579

                             ****ORCA TERMINATED NORMALLY****
TOTAL RUN TIME: 0 days 0 hours 0 minutes 6 seconds 557 msec
