                         Program Version 3.0.3 - RELEASE   -
|  1> ! RI PBE def2-SVP def2-SVP/J NBO PAL2
|  2> % maxcore 2000
|  3> % output
|  4>     # printlevel mini
|  5>     print[ P_Basis ] 0
|  6>     print[ P_SCFInfo ] 1
|  7>     print[ P_SCFIterInfo ] 1
|  8>     print[ P_OrbEn ] 0
|  9>     print[ P_Cartesian ] 0
| 10> end
| 11> *xyz 0 1
| 12>  O        1.0031230000    -0.5949540000    -0.1140470000
| 13>  C        2.2775230000    -0.0069300000     0.0643110000
| 14>  C        2.7372200000     0.5806310000    -1.2084060000
| 15>  C        2.9093810000     1.8431680000    -1.6585960000
| 16>  N        3.3819510000     1.8106710000    -2.9546320000
| 17>  C        3.4684470000     0.5553140000    -3.2205750000
| 18>  O        3.1022880000    -0.2590090000    -2.2190450000
| 19>  H        0.8112440000    -1.1375890000     0.6546810000
| 20>  H        3.0091840000    -0.7529800000     0.4020810000
| 21>  H        2.2487350000     0.7983860000     0.8090990000
| 22>  H        2.7239690000     2.7708060000    -1.1404710000
| 23>  H        3.7936350000     0.0881860000    -4.1374090000
| 24> *
| 25>
| 26>                          ****END OF INPUT****
 Total Charge           Charge          ....    0
 Multiplicity           Mult            ....    1
 Number of Electrons    NEL             ....   52
 Basis Dimension        Dim             ....  123

MULLIKEN ATOMIC CHARGES
-----------------------
   0 O :   -0.269355
   1 C :    0.250558
   2 C :   -0.016580
   3 C :   -0.020808
   4 N :   -0.120190
   5 C :    0.140927
   6 O :   -0.157719
   7 H :    0.156634
   8 H :    0.013229
   9 H :    0.001124
  10 H :   -0.001336
  11 H :    0.023515
Sum of atomic charges:    0.0000000

LOEWDIN ATOMIC CHARGES
----------------------
   0 O :   -0.123714
   1 C :    0.049639
   2 C :   -0.020246
   3 C :   -0.042630
   4 N :   -0.092785
   5 C :    0.034080
   6 O :    0.037107
   7 H :    0.071353
   8 H :    0.020777
   9 H :    0.020139
  10 H :    0.025311
  11 H :    0.020969

  Mayer bond orders larger than 0.1
B(  0-O ,  1-C ) :   1.1369 B(  0-O ,  7-H ) :   0.9771 B(  1-C ,  2-C ) :   1.0657
B(  1-C ,  8-H ) :   0.9038 B(  1-C ,  9-H ) :   0.9128 B(  2-C ,  3-C ) :   1.5920
B(  2-C ,  6-O ) :   1.1290 B(  3-C ,  4-N ) :   1.3272 B(  3-C , 10-H ) :   0.9908
B(  4-N ,  5-C ) :   1.7273 B(  5-C ,  6-O ) :   1.1811 B(  5-C , 11-H ) :   0.9754

FINAL SINGLE POINT ENERGY      -359.923382371942

DIPOLE MOMENT
-------------
                                X             Y             Z
Electronic contribution:      0.73035       0.10066      -3.16377
Nuclear contribution   :     -0.63545      -0.69065       4.11678
                        -----------------------------------------
Total Dipole Moment    :      0.09490      -0.58999       0.95301
                        -----------------------------------------
Magnitude (a.u.)       :      1.12486
Magnitude (Debye)      :      2.85917

                             ****ORCA TERMINATED NORMALLY****
TOTAL RUN TIME: 0 days 0 hours 0 minutes 5 seconds 568 msec
