                         Program Version 3.0.3 - RELEASE   -
|  1> ! RI PBE def2-SVP def2-SVP/J NBO PAL2
|  2> % maxcore 2000
|  3> % output
|  4>     # printlevel mini
|  5>     print[ P_Basis ] 0
|  6>     print[ P_SCFInfo ] 1
|  7>     print[ P_SCFIterInfo ] 1
|  8>     print[ P_OrbEn ] 0
|  9>     print[ P_Cartesian ] 0
| 10> end
| 11> *xyz 0 1
| 12>  O        1.2453560000    -0.4235030000    -0.7156520000
| 13>  C        2.1724880000    -0.0488860000    -0.0449700000
| 14>  C        2.9122740000    -0.8737930000     0.8921190000
| 15>  C        3.9662160000    -0.6047200000     1.7101050000
| 16>  N        4.3025310000    -1.7356760000     2.4067830000
| 17>  C        3.4556840000    -2.6184420000     1.9881420000
| 18>  O        2.5846550000    -2.1824510000     1.0764000000
| 19>  H        2.5482590000     0.9931880000    -0.0925340000
| 20>  H        4.4963580000     0.3267970000     1.8365320000
| 21>  H        3.3753690000    -3.6522250000     2.2885730000
| 22> *
| 23>
| 24>                          ****END OF INPUT****
 Total Charge           Charge          ....    0
 Multiplicity           Mult            ....    1
 Number of Electrons    NEL             ....   50
 Basis Dimension        Dim             ....  113

MULLIKEN ATOMIC CHARGES
-----------------------
   0 O :   -0.145205
   1 C :    0.135218
   2 C :    0.041246
   3 C :    0.009229
   4 N :   -0.111540
   5 C :    0.157371
   6 O :   -0.131033
   7 H :   -0.018920
   8 H :    0.022187
   9 H :    0.041446
Sum of atomic charges:   -0.0000000

LOEWDIN ATOMIC CHARGES
----------------------
   0 O :   -0.101720
   1 C :    0.058652
   2 C :   -0.053350
   3 C :   -0.003543
   4 N :   -0.083552
   5 C :    0.061740
   6 O :    0.061410
   7 H :   -0.002372
   8 H :    0.033574
   9 H :    0.029162

  Mayer bond orders larger than 0.1
B(  0-O ,  1-C ) :   2.1600 B(  1-C ,  2-C ) :   1.0133 B(  1-C ,  7-H ) :   0.9395
B(  2-C ,  3-C ) :   1.4624 B(  2-C ,  6-O ) :   1.1265 B(  3-C ,  4-N ) :   1.3659
B(  3-C ,  8-H ) :   0.9866 B(  4-N ,  5-C ) :   1.6809 B(  5-C ,  6-O ) :   1.2148
B(  5-C ,  9-H ) :   0.9748

FINAL SINGLE POINT ENERGY      -358.733286359337

DIPOLE MOMENT
-------------
                                X             Y             Z
Electronic contribution:     -1.07506      -1.19335      -0.50418
Nuclear contribution   :      1.57019       1.23221       0.92083
                        -----------------------------------------
Total Dipole Moment    :      0.49514       0.03887       0.41664
                        -----------------------------------------
Magnitude (a.u.)       :      0.64828
Magnitude (Debye)      :      1.64779

                             ****ORCA TERMINATED NORMALLY****
TOTAL RUN TIME: 0 days 0 hours 0 minutes 5 seconds 228 msec
