                         Program Version 3.0.3 - RELEASE   -
|  1> ! RI PBE def2-SVP def2-SVP/J NBO PAL2
|  2> % maxcore 2000
|  3> % output
|  4>     # printlevel mini
|  5>     print[ P_Basis ] 0
|  6>     print[ P_SCFInfo ] 1
|  7>     print[ P_SCFIterInfo ] 1
|  8>     print[ P_OrbEn ] 0
|  9>     print[ P_Cartesian ] 0
| 10> end
| 11> *xyz 0 1
| 12>  O        1.8002610000     0.2078900000     1.1892620000
| 13>  C        2.1227400000     0.1580470000     0.0403220000
| 14>  C        3.0069370000    -0.9226270000    -0.5521100000
| 15>  C        2.4981300000    -1.5635730000    -1.8012820000
| 16>  N        2.4642810000    -2.8344690000    -1.7082130000
| 17>  N        2.9200470000    -3.2135020000    -0.4119520000
| 18>  C        3.2146150000    -2.1596770000     0.2445880000
| 19>  H        1.8014510000     0.9322300000    -0.6862420000
| 20>  H        3.9709740000    -0.4317340000    -0.7666540000
| 21>  H        2.1940820000    -1.0529470000    -2.7075730000
| 22>  H        3.5690900000    -2.2061280000     1.2661640000
| 23> *
| 24>
| 25>                          ****END OF INPUT****
 Total Charge           Charge          ....    0
 Multiplicity           Mult            ....    1
 Number of Electrons    NEL             ....   50
 Basis Dimension        Dim             ....  118

MULLIKEN ATOMIC CHARGES
-----------------------
   0 O :   -0.125367
   1 C :    0.139883
   2 C :   -0.151881
   3 C :    0.043977
   4 N :   -0.083360
   5 N :   -0.087428
   6 C :    0.072848
   7 H :    0.015281
   8 H :    0.106356
   9 H :    0.032424
  10 H :    0.037267
Sum of atomic charges:    0.0000000

LOEWDIN ATOMIC CHARGES
----------------------
   0 O :   -0.077096
   1 C :    0.110711
   2 C :   -0.124707
   3 C :    0.002432
   4 N :   -0.040419
   5 N :   -0.040932
   6 C :    0.016967
   7 H :   -0.000197
   8 H :    0.091665
   9 H :    0.028820
  10 H :    0.032757

  Mayer bond orders larger than 0.1
B(  0-O ,  1-C ) :   2.2263 B(  1-C ,  2-C ) :   0.8725 B(  1-C ,  7-H ) :   0.9304
B(  2-C ,  3-C ) :   0.9741 B(  2-C ,  6-C ) :   0.9836 B(  2-C ,  8-H ) :   0.8411
B(  3-C ,  4-N ) :   1.8817 B(  3-C ,  9-H ) :   0.9716 B(  4-N ,  5-N ) :   1.0194
B(  5-N ,  6-C ) :   1.8842 B(  6-C , 10-H ) :   0.9736

FINAL SINGLE POINT ENERGY      -338.832418411099

DIPOLE MOMENT
-------------
                                X             Y             Z
Electronic contribution:     -0.65183      -1.37861       0.81932
Nuclear contribution   :      1.20222       2.81114      -1.19819
                        -----------------------------------------
Total Dipole Moment    :      0.55038       1.43253      -0.37887
                        -----------------------------------------
Magnitude (a.u.)       :      1.58070
Magnitude (Debye)      :      4.01782

                             ****ORCA TERMINATED NORMALLY****
TOTAL RUN TIME: 0 days 0 hours 0 minutes 5 seconds 891 msec
