                         Program Version 3.0.3 - RELEASE   -
|  1> ! RI PBE def2-SVP def2-SVP/J NBO PAL2
|  2> % maxcore 2000
|  3> % output
|  4>     # printlevel mini
|  5>     print[ P_Basis ] 0
|  6>     print[ P_SCFInfo ] 1
|  7>     print[ P_SCFIterInfo ] 1
|  8>     print[ P_OrbEn ] 0
|  9>     print[ P_Cartesian ] 0
| 10> end
| 11> *xyz 0 1
| 12>  O        1.9020530000     1.2471080000    -0.6893170000
| 13>  C        2.1250340000     0.1538510000    -0.2530290000
| 14>  C        3.1130580000    -0.8153320000    -0.8433430000
| 15>  C        2.6794590000    -2.2798320000    -0.7627220000
| 16>  N        3.9488820000    -2.9588820000    -0.5007830000
| 17>  N        4.7914140000    -2.0969650000     0.1455720000
| 18>  C        4.3873690000    -0.9022300000    -0.0248770000
| 19>  H        1.6140460000    -0.2122890000     0.6660770000
| 20>  H        3.3434370000    -0.4878150000    -1.8633810000
| 21>  H        2.2141500000    -2.6462010000    -1.6773690000
| 22>  H        1.9741920000    -2.4116730000     0.0727080000
| 23>  H        3.9011390000    -3.8479110000    -0.0258630000
| 24>  H        4.9636700000    -0.0579290000     0.3285270000
| 25> *
| 26>
| 27>                          ****END OF INPUT****
 Total Charge           Charge          ....    0
 Multiplicity           Mult            ....    1
 Number of Electrons    NEL             ....   52
 Basis Dimension        Dim             ....  128

MULLIKEN ATOMIC CHARGES
-----------------------
   0 O :   -0.148156
   1 C :    0.127734
   2 C :   -0.152051
   3 C :    0.174670
   4 N :   -0.145537
   5 N :   -0.068372
   6 C :   -0.020567
   7 H :   -0.015225
   8 H :    0.045640
   9 H :    0.031104
  10 H :    0.022023
  11 H :    0.123877
  12 H :    0.024858
Sum of atomic charges:    0.0000000

LOEWDIN ATOMIC CHARGES
----------------------
   0 O :   -0.096685
   1 C :    0.088837
   2 C :   -0.096976
   3 C :    0.022076
   4 N :   -0.009337
   5 N :   -0.023074
   6 C :   -0.050986
   7 H :   -0.013862
   8 H :    0.045603
   9 H :    0.030510
  10 H :    0.015042
  11 H :    0.063800
  12 H :    0.025052

  Mayer bond orders larger than 0.1
B(  0-O ,  1-C ) :   2.1895 B(  1-C ,  2-C ) :   0.9316 B(  1-C ,  7-H ) :   0.9225
B(  2-C ,  3-C ) :   1.0331 B(  2-C ,  6-C ) :   0.9535 B(  2-C ,  8-H ) :   0.8697
B(  3-C ,  4-N ) :   0.9757 B(  3-C ,  9-H ) :   0.9301 B(  3-C , 10-H ) :   0.9348
B(  4-N ,  5-N ) :   1.1180 B(  4-N ,  6-C ) :   0.1169 B(  4-N , 11-H ) :   0.9370
B(  5-N ,  6-C ) :   1.8681 B(  6-C , 12-H ) :   0.9808

FINAL SINGLE POINT ENERGY      -340.052549931004

DIPOLE MOMENT
-------------
                                X             Y             Z
Electronic contribution:      0.99918       2.01730       0.09812
Nuclear contribution   :     -1.40282      -2.92140       0.01507
                        -----------------------------------------
Total Dipole Moment    :     -0.40364      -0.90410       0.11320
                        -----------------------------------------
Magnitude (a.u.)       :      0.99656
Magnitude (Debye)      :      2.53306

                             ****ORCA TERMINATED NORMALLY****
TOTAL RUN TIME: 0 days 0 hours 0 minutes 5 seconds 793 msec
