                         Program Version 3.0.3 - RELEASE   -
|  1> ! RI PBE def2-SVP def2-SVP/J NBO PAL2
|  2> % maxcore 2000
|  3> % output
|  4>     # printlevel mini
|  5>     print[ P_Basis ] 0
|  6>     print[ P_SCFInfo ] 1
|  7>     print[ P_SCFIterInfo ] 1
|  8>     print[ P_OrbEn ] 0
|  9>     print[ P_Cartesian ] 0
| 10> end
| 11> *xyz 0 1
| 12>  O        0.9745510000    -0.1092500000     0.0897980000
| 13>  C        2.3025650000    -0.1191900000     0.0559090000
| 14>  C        3.0140160000     0.7176260000    -0.7196710000
| 15>  C        4.4531110000     0.7872130000    -0.8286870000
| 16>  N        4.8032980000     1.7041590000    -1.6646510000
| 17>  N        3.6387810000     2.3127220000    -2.1744340000
| 18>  C        2.6060260000     1.7539350000    -1.6385710000
| 19>  H        0.6434410000    -0.7751920000     0.6994210000
| 20>  H        2.8038770000    -0.8454710000     0.6929520000
| 21>  H        5.1844880000     0.1816770000    -0.3076630000
| 22>  H        1.5985350000     2.0619700000    -1.8831230000
| 23> *
| 24>
| 25>                          ****END OF INPUT****
 Total Charge           Charge          ....    0
 Multiplicity           Mult            ....    1
 Number of Electrons    NEL             ....   50
 Basis Dimension        Dim             ....  118

MULLIKEN ATOMIC CHARGES
-----------------------
   0 O :   -0.094836
   1 C :    0.076198
   2 C :   -0.087026
   3 C :    0.045222
   4 N :   -0.106704
   5 N :   -0.107062
   6 C :    0.064839
   7 H :    0.192578
   8 H :    0.018068
   9 H :   -0.002544
  10 H :    0.001269
Sum of atomic charges:   -0.0000000

LOEWDIN ATOMIC CHARGES
----------------------
   0 O :    0.034151
   1 C :    0.101206
   2 C :   -0.131024
   3 C :   -0.027542
   4 N :   -0.067070
   5 N :   -0.060449
   6 C :   -0.021470
   7 H :    0.103850
   8 H :    0.025780
   9 H :    0.019933
  10 H :    0.022635

  Mayer bond orders larger than 0.1
B(  0-O ,  1-C ) :   1.3321 B(  0-O ,  7-H ) :   0.9552 B(  1-C ,  2-C ) :   1.5666
B(  1-C ,  8-H ) :   0.9385 B(  2-C ,  3-C ) :   1.0757 B(  2-C ,  6-C ) :   1.0697
B(  3-C ,  4-N ) :   1.7756 B(  3-C ,  9-H ) :   0.9810 B(  4-N ,  5-N ) :   1.0641
B(  5-N ,  6-C ) :   1.7679 B(  6-C , 10-H ) :   0.9896

FINAL SINGLE POINT ENERGY      -338.842243084428

DIPOLE MOMENT
-------------
                                X             Y             Z
Electronic contribution:      0.30166       1.07559      -0.97844
Nuclear contribution   :     -1.85489      -3.04633       2.79965
                        -----------------------------------------
Total Dipole Moment    :     -1.55324      -1.97073       1.82121
                        -----------------------------------------
Magnitude (a.u.)       :      3.10051
Magnitude (Debye)      :      7.88086

                             ****ORCA TERMINATED NORMALLY****
TOTAL RUN TIME: 0 days 0 hours 0 minutes 6 seconds 27 msec
