                         Program Version 3.0.3 - RELEASE   -
|  1> ! RI PBE def2-SVP def2-SVP/J NBO PAL2
|  2> % maxcore 2000
|  3> % output
|  4>     # printlevel mini
|  5>     print[ P_Basis ] 0
|  6>     print[ P_SCFInfo ] 1
|  7>     print[ P_SCFIterInfo ] 1
|  8>     print[ P_OrbEn ] 0
|  9>     print[ P_Cartesian ] 0
| 10> end
| 11> *xyz 0 1
| 12>  O        2.4481630000    -1.5606570000     0.1142330000
| 13>  C        2.4237280000    -0.1521530000     0.1463900000
| 14>  C        2.9521590000     0.3427660000    -1.1920110000
| 15>  C        3.0158130000     1.8217300000    -1.3448270000
| 16>  N        2.3553030000     2.2440150000    -2.3518100000
| 17>  N        1.7540870000     1.1241390000    -3.0012920000
| 18>  C        2.0772970000     0.0660520000    -2.3635880000
| 19>  H        2.0361280000    -1.8967680000     0.9135680000
| 20>  H        3.0604310000     0.2396130000     0.9503700000
| 21>  H        1.4069760000     0.2311250000     0.2996620000
| 22>  H        3.9442610000    -0.1053410000    -1.3463720000
| 23>  H        3.5582180000     2.5087760000    -0.7047570000
| 24>  H        1.7293350000    -0.9112960000    -2.6748570000
| 25> *
| 26>
| 27>                          ****END OF INPUT****
 Total Charge           Charge          ....    0
 Multiplicity           Mult            ....    1
 Number of Electrons    NEL             ....   52
 Basis Dimension        Dim             ....  128

MULLIKEN ATOMIC CHARGES
-----------------------
   0 O :   -0.271353
   1 C :    0.200530
   2 C :   -0.170632
   3 C :    0.044725
   4 N :   -0.091463
   5 N :   -0.099651
   6 C :    0.067398
   7 H :    0.163030
   8 H :    0.016600
   9 H :    0.014963
  10 H :    0.078358
  11 H :    0.021623
  12 H :    0.025873
Sum of atomic charges:    0.0000000

LOEWDIN ATOMIC CHARGES
----------------------
   0 O :   -0.122667
   1 C :    0.080161
   2 C :   -0.092741
   3 C :   -0.001533
   4 N :   -0.047950
   5 N :   -0.053226
   6 C :    0.010362
   7 H :    0.077849
   8 H :    0.011322
   9 H :    0.013961
  10 H :    0.071680
  11 H :    0.024861
  12 H :    0.027921

  Mayer bond orders larger than 0.1
B(  0-O ,  1-C ) :   1.1079 B(  0-O ,  7-H ) :   0.9746 B(  1-C ,  2-C ) :   1.0156
B(  1-C ,  8-H ) :   0.9354 B(  1-C ,  9-H ) :   0.9290 B(  2-C ,  3-C ) :   0.9799
B(  2-C ,  6-C ) :   0.9968 B(  2-C , 10-H ) :   0.8594 B(  3-C ,  4-N ) :   1.8852
B(  3-C , 11-H ) :   0.9725 B(  4-N ,  5-N ) :   1.0195 B(  5-N ,  6-C ) :   1.8721
B(  6-C , 12-H ) :   0.9755

FINAL SINGLE POINT ENERGY      -340.031830417975

DIPOLE MOMENT
-------------
                                X             Y             Z
Electronic contribution:     -0.67115       1.76520      -3.53433
Nuclear contribution   :      1.08365      -2.66541       5.22508
                        -----------------------------------------
Total Dipole Moment    :      0.41250      -0.90021       1.69075
                        -----------------------------------------
Magnitude (a.u.)       :      1.95938
Magnitude (Debye)      :      4.98035

                             ****ORCA TERMINATED NORMALLY****
TOTAL RUN TIME: 0 days 0 hours 0 minutes 5 seconds 912 msec
