                         Program Version 3.0.3 - RELEASE   -
|  1> ! RI PBE def2-SVP def2-SVP/J NBO PAL2
|  2> % maxcore 2000
|  3> % output
|  4>     # printlevel mini
|  5>     print[ P_Basis ] 0
|  6>     print[ P_SCFInfo ] 1
|  7>     print[ P_SCFIterInfo ] 1
|  8>     print[ P_OrbEn ] 0
|  9>     print[ P_Cartesian ] 0
| 10> end
| 11> *xyz 0 1
| 12>  O        2.9978240000     1.1784590000    -0.6303110000
| 13>  C        2.4926650000    -0.0499460000    -0.1521000000
| 14>  C        2.7082360000    -0.0928340000     1.3444170000
| 15>  C        2.2354660000    -1.3849730000     2.0123510000
| 16>  N        1.7964020000    -0.9026010000     3.3227860000
| 17>  N        1.3985390000     0.4133780000     3.2010830000
| 18>  C        1.9004840000     0.8996710000     2.1369410000
| 19>  H        2.8341640000     1.2346460000    -1.5740760000
| 20>  H        3.0096940000    -0.8989340000    -0.6223220000
| 21>  H        1.4193080000    -0.1498890000    -0.3667940000
| 22>  H        3.7765340000     0.0785250000     1.5357950000
| 23>  H        3.0188050000    -2.1365900000     2.1126930000
| 24>  H        1.4004090000    -1.8192510000     1.4396820000
| 25>  H        1.0749430000    -1.4447490000     3.7746300000
| 26>  H        1.7806380000     1.9469790000     1.8935460000
| 27> *
| 28>
| 29>                          ****END OF INPUT****
 Total Charge           Charge          ....    0
 Multiplicity           Mult            ....    1
 Number of Electrons    NEL             ....   54
 Basis Dimension        Dim             ....  138

MULLIKEN ATOMIC CHARGES
-----------------------
   0 O :   -0.273236
   1 C :    0.202226
   2 C :   -0.186330
   3 C :    0.173900
   4 N :   -0.151740
   5 N :   -0.092338
   6 C :   -0.012147
   7 H :    0.157312
   8 H :    0.001683
   9 H :   -0.008635
  10 H :    0.037338
  11 H :    0.023315
  12 H :    0.002248
  13 H :    0.114823
  14 H :    0.011581
Sum of atomic charges:   -0.0000000

LOEWDIN ATOMIC CHARGES
----------------------
   0 O :   -0.124432
   1 C :    0.063340
   2 C :   -0.074687
   3 C :    0.016971
   4 N :   -0.022097
   5 N :   -0.041287
   6 C :   -0.050719
   7 H :    0.073697
   8 H :    0.004562
   9 H :    0.001716
  10 H :    0.039276
  11 H :    0.025026
  12 H :    0.010349
  13 H :    0.057760
  14 H :    0.020523

  Mayer bond orders larger than 0.1
B(  0-O ,  1-C ) :   1.1082 B(  0-O ,  7-H ) :   0.9782 B(  1-C ,  2-C ) :   1.0538
B(  1-C ,  8-H ) :   0.9333 B(  1-C ,  9-H ) :   0.9215 B(  2-C ,  3-C ) :   1.0574
B(  2-C ,  6-C ) :   0.9848 B(  2-C , 10-H ) :   0.8698 B(  3-C ,  4-N ) :   0.9933
B(  3-C , 11-H ) :   0.9286 B(  3-C , 12-H ) :   0.9291 B(  4-N ,  5-N ) :   1.0929
B(  4-N ,  6-C ) :   0.1053 B(  4-N , 13-H ) :   0.9402 B(  5-N ,  6-C ) :   1.8790
B(  6-C , 14-H ) :   0.9836

FINAL SINGLE POINT ENERGY      -341.247755224247

DIPOLE MOMENT
-------------
                                X             Y             Z
Electronic contribution:     -0.54219       2.25548       2.77345
Nuclear contribution   :      0.44580      -3.07085      -3.84918
                        -----------------------------------------
Total Dipole Moment    :     -0.09639      -0.81538      -1.07573
                        -----------------------------------------
Magnitude (a.u.)       :      1.35327
Magnitude (Debye)      :      3.43973

                             ****ORCA TERMINATED NORMALLY****
TOTAL RUN TIME: 0 days 0 hours 0 minutes 7 seconds 271 msec
