                         Program Version 3.0.3 - RELEASE   -
|  1> ! RI PBE def2-SVP def2-SVP/J NBO PAL2
|  2> % maxcore 2000
|  3> % output
|  4>     # printlevel mini
|  5>     print[ P_Basis ] 0
|  6>     print[ P_SCFInfo ] 1
|  7>     print[ P_SCFIterInfo ] 1
|  8>     print[ P_OrbEn ] 0
|  9>     print[ P_Cartesian ] 0
| 10> end
| 11> *xyz 0 1
| 12>  O        3.3585340000     0.8154810000    -0.0256700000
| 13>  C        2.3819970000    -0.1897730000    -0.2064110000
| 14>  C        2.7804000000    -1.3876930000     0.5795610000
| 15>  C        3.9007840000    -1.5321700000     1.3615350000
| 16>  N        3.8438160000    -2.7775710000     1.8772420000
| 17>  N        2.7691610000    -3.4601740000     1.4910010000
| 18>  C        2.1153950000    -2.6236550000     0.7012720000
| 19>  H        3.0976450000     1.5861130000    -0.5337450000
| 20>  H        2.2892160000    -0.4568030000    -1.2690000000
| 21>  H        1.3946410000     0.1612790000     0.1266200000
| 22>  H        4.7050150000    -0.8474180000     1.5735260000
| 23>  H        4.5053330000    -3.2139110000     2.4939330000
| 24>  H        1.1871540000    -2.9369950000     0.2453370000
| 25> *
| 26>
| 27>                          ****END OF INPUT****
 Total Charge           Charge          ....    0
 Multiplicity           Mult            ....    1
 Number of Electrons    NEL             ....   52
 Basis Dimension        Dim             ....  128

MULLIKEN ATOMIC CHARGES
-----------------------
   0 O :   -0.274454
   1 C :    0.253699
   2 C :   -0.194630
   3 C :    0.067460
   4 N :   -0.014551
   5 N :   -0.121230
   6 C :    0.013065
   7 H :    0.156508
   8 H :    0.008753
   9 H :    0.001468
  10 H :   -0.000635
  11 H :    0.123850
  12 H :   -0.019301
Sum of atomic charges:   -0.0000000

LOEWDIN ATOMIC CHARGES
----------------------
   0 O :   -0.125255
   1 C :    0.068131
   2 C :   -0.115904
   3 C :   -0.025358
   4 N :    0.132915
   5 N :   -0.098614
   6 C :   -0.058487
   7 H :    0.072832
   8 H :    0.014384
   9 H :    0.013083
  10 H :    0.026162
  11 H :    0.080019
  12 H :    0.016093

  Mayer bond orders larger than 0.1
B(  0-O ,  1-C ) :   1.1306 B(  0-O ,  7-H ) :   0.9762 B(  1-C ,  2-C ) :   1.0446
B(  1-C ,  8-H ) :   0.9213 B(  1-C ,  9-H ) :   0.9179 B(  2-C ,  3-C ) :   1.4587
B(  2-C ,  6-C ) :   1.3235 B(  3-C ,  4-N ) :   1.2162 B(  3-C ,  5-N ) :   0.1284
B(  3-C , 10-H ) :   0.9825 B(  4-N ,  5-N ) :   1.1879 B(  4-N , 11-H ) :   0.9482
B(  5-N ,  6-C ) :   1.5846 B(  6-C , 12-H ) :   0.9956

FINAL SINGLE POINT ENERGY      -340.079756558239

DIPOLE MOMENT
-------------
                                X             Y             Z
Electronic contribution:      1.21082      -2.47271       1.87356
Nuclear contribution   :     -0.97071       3.20795      -2.04361
                        -----------------------------------------
Total Dipole Moment    :      0.24011       0.73525      -0.17004
                        -----------------------------------------
Magnitude (a.u.)       :      0.79193
Magnitude (Debye)      :      2.01293

                             ****ORCA TERMINATED NORMALLY****
TOTAL RUN TIME: 0 days 0 hours 0 minutes 6 seconds 127 msec
