                         Program Version 3.0.3 - RELEASE   -
|  1> ! RI PBE def2-SVP def2-SVP/J NBO PAL2
|  2> % maxcore 2000
|  3> % output
|  4>     # printlevel mini
|  5>     print[ P_Basis ] 0
|  6>     print[ P_SCFInfo ] 1
|  7>     print[ P_SCFIterInfo ] 1
|  8>     print[ P_OrbEn ] 0
|  9>     print[ P_Cartesian ] 0
| 10> end
| 11> *xyz 0 1
| 12>  O        3.4289930000    -0.2402060000    -0.9239540000
| 13>  C        2.4086120000     0.2232590000    -0.0593140000
| 14>  C        2.9064200000     0.1725910000     1.3377450000
| 15>  C        3.0514330000     1.1787770000     2.2311430000
| 16>  O        3.5225570000     0.7183100000     3.3891670000
| 17>  N        3.7167980000    -0.6385410000     3.2853570000
| 18>  C        3.3523830000    -0.9546630000     2.0778020000
| 19>  H        3.0583750000    -0.3376030000    -1.8046230000
| 20>  H        1.5115940000    -0.4041790000    -0.1523720000
| 21>  H        2.1157740000     1.2529390000    -0.3023290000
| 22>  H        2.8622990000     2.2403050000     2.1814690000
| 23>  H        3.4257640000    -1.9838880000     1.7569090000
| 24> *
| 25>
| 26>                          ****END OF INPUT****
 Total Charge           Charge          ....    0
 Multiplicity           Mult            ....    1
 Number of Electrons    NEL             ....   52
 Basis Dimension        Dim             ....  123

MULLIKEN ATOMIC CHARGES
-----------------------
   0 O :   -0.273546
   1 C :    0.258972
   2 C :   -0.170773
   3 C :    0.124720
   4 O :   -0.143429
   5 N :   -0.026187
   6 C :    0.037091
   7 H :    0.157353
   8 H :    0.010269
   9 H :   -0.012773
  10 H :    0.023921
  11 H :    0.014380
Sum of atomic charges:   -0.0000000

LOEWDIN ATOMIC CHARGES
----------------------
   0 O :   -0.125670
   1 C :    0.066476
   2 C :   -0.116738
   3 C :    0.028591
   4 O :    0.046880
   5 N :   -0.032538
   6 C :   -0.029109
   7 H :    0.071803
   8 H :    0.016676
   9 H :    0.011024
  10 H :    0.029131
  11 H :    0.033473

  Mayer bond orders larger than 0.1
B(  0-O ,  1-C ) :   1.1298 B(  0-O ,  7-H ) :   0.9777 B(  1-C ,  2-C ) :   1.0653
B(  1-C ,  8-H ) :   0.9145 B(  1-C ,  9-H ) :   0.9123 B(  2-C ,  3-C ) :   1.5551
B(  2-C ,  6-C ) :   1.2308 B(  3-C ,  4-O ) :   1.1896 B(  3-C ,  5-N ) :   0.1224
B(  3-C , 10-H ) :   0.9823 B(  4-O ,  5-N ) :   1.0185 B(  5-N ,  6-C ) :   1.6851
B(  6-C , 11-H ) :   0.9857

FINAL SINGLE POINT ENERGY      -359.885004127627

DIPOLE MOMENT
-------------
                                X             Y             Z
Electronic contribution:      1.92249      -0.03566       4.47006
Nuclear contribution   :     -2.82938       0.39338      -5.72757
                        -----------------------------------------
Total Dipole Moment    :     -0.90689       0.35772      -1.25751
                        -----------------------------------------
Magnitude (a.u.)       :      1.59115
Magnitude (Debye)      :      4.04438

                             ****ORCA TERMINATED NORMALLY****
TOTAL RUN TIME: 0 days 0 hours 0 minutes 5 seconds 957 msec
