                         Program Version 3.0.3 - RELEASE   -
|  1> ! RI PBE def2-SVP def2-SVP/J NBO PAL2
|  2> % maxcore 2000
|  3> % output
|  4>     # printlevel mini
|  5>     print[ P_Basis ] 0
|  6>     print[ P_SCFInfo ] 1
|  7>     print[ P_SCFIterInfo ] 1
|  8>     print[ P_OrbEn ] 0
|  9>     print[ P_Cartesian ] 0
| 10> end
| 11> *xyz 0 1
| 12>  O        2.2490060000    -1.3212880000    -0.1839340000
| 13>  C        2.1324030000    -0.1277100000    -0.0686350000
| 14>  C        2.8297940000     0.6635970000     0.9360840000
| 15>  C        2.7648140000     2.0067550000     1.1452780000
| 16>  O        3.5442500000     2.3564060000     2.1539140000
| 17>  N        4.1686500000     1.2272220000     2.6607380000
| 18>  C        3.7438720000     0.2368570000     1.9401150000
| 19>  H        1.4668330000     0.4493780000    -0.7427080000
| 20>  H        2.2184610000     2.8023160000     0.6606700000
| 21>  H        4.0910160000    -0.7658120000     2.1417700000
| 22> *
| 23>
| 24>                          ****END OF INPUT****
 Total Charge           Charge          ....    0
 Multiplicity           Mult            ....    1
 Number of Electrons    NEL             ....   50
 Basis Dimension        Dim             ....  113

MULLIKEN ATOMIC CHARGES
-----------------------
   0 O :   -0.154190
   1 C :    0.153581
   2 C :   -0.125425
   3 C :    0.162802
   4 O :   -0.130642
   5 N :   -0.010744
   6 C :    0.052538
   7 H :   -0.022998
   8 H :    0.041091
   9 H :    0.033987
Sum of atomic charges:   -0.0000000

LOEWDIN ATOMIC CHARGES
----------------------
   0 O :   -0.108173
   1 C :    0.081074
   2 C :   -0.152425
   3 C :    0.064492
   4 O :    0.061726
   5 N :   -0.015760
   6 C :   -0.004009
   7 H :   -0.007225
   8 H :    0.037148
   9 H :    0.043152

  Mayer bond orders larger than 0.1
B(  0-O ,  1-C ) :   2.1663 B(  1-C ,  2-C ) :   1.0046 B(  1-C ,  7-H ) :   0.9386
B(  2-C ,  3-C ) :   1.4517 B(  2-C ,  6-C ) :   1.1928 B(  3-C ,  4-O ) :   1.2301
B(  3-C ,  5-N ) :   0.1063 B(  3-C ,  8-H ) :   0.9786 B(  4-O ,  5-N ) :   0.9936
B(  5-N ,  6-C ) :   1.7096 B(  6-C ,  9-H ) :   0.9830

FINAL SINGLE POINT ENERGY      -358.696272600874

DIPOLE MOMENT
-------------
                                X             Y             Z
Electronic contribution:      0.87364       0.40494       1.12956
Nuclear contribution   :     -1.30532       0.30993      -1.49775
                        -----------------------------------------
Total Dipole Moment    :     -0.43167       0.71487      -0.36819
                        -----------------------------------------
Magnitude (a.u.)       :      0.91266
Magnitude (Debye)      :      2.31979

                             ****ORCA TERMINATED NORMALLY****
TOTAL RUN TIME: 0 days 0 hours 0 minutes 5 seconds 727 msec
