                         Program Version 3.0.3 - RELEASE   -
|  1> ! RI PBE def2-SVP def2-SVP/J NBO PAL2
|  2> % maxcore 2000
|  3> % output
|  4>     # printlevel mini
|  5>     print[ P_Basis ] 0
|  6>     print[ P_SCFInfo ] 1
|  7>     print[ P_SCFIterInfo ] 1
|  8>     print[ P_OrbEn ] 0
|  9>     print[ P_Cartesian ] 0
| 10> end
| 11> *xyz 0 1
| 12>  O        2.5872300000     0.8172520000    -0.9917740000
| 13>  C        2.0716560000    -0.0908040000    -0.0445560000
| 14>  C        2.7110570000    -1.4109150000    -0.2634360000
| 15>  C        3.6313820000    -1.7773760000    -1.1788770000
| 16>  O        3.9104570000    -3.0971180000    -0.9831900000
| 17>  C        3.1332520000    -3.4519930000     0.0500480000
| 18>  N        2.4011140000    -2.5059830000     0.5219190000
| 19>  H        2.1721570000     1.6705780000    -0.8527550000
| 20>  H        0.9825790000    -0.2025910000    -0.1402330000
| 21>  H        2.2750120000     0.2369090000     0.9845260000
| 22>  H        4.1492470000    -1.2709710000    -1.9729940000
| 23>  H        3.1941570000    -4.4770880000     0.3813440000
| 24> *
| 25>
| 26>                          ****END OF INPUT****
 Total Charge           Charge          ....    0
 Multiplicity           Mult            ....    1
 Number of Electrons    NEL             ....   52
 Basis Dimension        Dim             ....  123

MULLIKEN ATOMIC CHARGES
-----------------------
   0 O :   -0.275462
   1 C :    0.265794
   2 C :   -0.144114
   3 C :    0.080761
   4 O :   -0.156483
   5 C :    0.136805
   6 N :   -0.133770
   7 H :    0.160975
   8 H :    0.017649
   9 H :    0.010430
  10 H :    0.014172
  11 H :    0.023244
Sum of atomic charges:   -0.0000000

LOEWDIN ATOMIC CHARGES
----------------------
   0 O :   -0.122815
   1 C :    0.062676
   2 C :   -0.071013
   3 C :    0.004404
   4 O :    0.032975
   5 C :    0.030131
   6 N :   -0.099088
   7 H :    0.075435
   8 H :    0.020623
   9 H :    0.019107
  10 H :    0.027351
  11 H :    0.020212

  Mayer bond orders larger than 0.1
B(  0-O ,  1-C ) :   1.1321 B(  0-O ,  7-H ) :   0.9751 B(  1-C ,  2-C ) :   1.0388
B(  1-C ,  8-H ) :   0.9129 B(  1-C ,  9-H ) :   0.9110 B(  2-C ,  3-C ) :   1.5813
B(  2-C ,  6-N ) :   1.3181 B(  3-C ,  4-O ) :   1.1207 B(  3-C , 10-H ) :   0.9937
B(  4-O ,  5-C ) :   1.1937 B(  5-C ,  6-N ) :   1.7091 B(  5-C , 11-H ) :   0.9742

FINAL SINGLE POINT ENERGY      -359.924679721011

DIPOLE MOMENT
-------------
                                X             Y             Z
Electronic contribution:      1.59168      -3.15908      -0.59478
Nuclear contribution   :     -1.69843       3.62340       0.53084
                        -----------------------------------------
Total Dipole Moment    :     -0.10675       0.46432      -0.06394
                        -----------------------------------------
Magnitude (a.u.)       :      0.48070
Magnitude (Debye)      :      1.22184

                             ****ORCA TERMINATED NORMALLY****
TOTAL RUN TIME: 0 days 0 hours 0 minutes 5 seconds 752 msec
