                         Program Version 3.0.3 - RELEASE   -
|  1> ! RI PBE def2-SVP def2-SVP/J NBO PAL2
|  2> % maxcore 2000
|  3> % output
|  4>     # printlevel mini
|  5>     print[ P_Basis ] 0
|  6>     print[ P_SCFInfo ] 1
|  7>     print[ P_SCFIterInfo ] 1
|  8>     print[ P_OrbEn ] 0
|  9>     print[ P_Cartesian ] 0
| 10> end
| 11> *xyz 0 1
| 12>  O        1.4172030000    -0.6712380000    -0.6266760000
| 13>  C        2.1080950000     0.0891390000    -0.0045430000
| 14>  C        2.8548070000    -0.2498280000     1.2074750000
| 15>  C        3.6415800000     0.5913380000     1.9273440000
| 16>  O        4.1511970000    -0.0959150000     2.9665340000
| 17>  C        3.6395360000    -1.3434140000     2.8240740000
| 18>  N        2.8723450000    -1.4958740000     1.8115700000
| 19>  H        2.2322520000     1.1469630000    -0.3211470000
| 20>  H        3.9189030000     1.6284600000     1.8367220000
| 21>  H        3.9268810000    -2.0704230000     3.5678670000
| 22> *
| 23>
| 24>                          ****END OF INPUT****
 Total Charge           Charge          ....    0
 Multiplicity           Mult            ....    1
 Number of Electrons    NEL             ....   50
 Basis Dimension        Dim             ....  113

MULLIKEN ATOMIC CHARGES
-----------------------
   0 O :   -0.132129
   1 C :    0.150009
   2 C :   -0.074918
   3 C :    0.104282
   4 O :   -0.144846
   5 C :    0.142355
   6 N :   -0.082822
   7 H :   -0.034601
   8 H :    0.032135
   9 H :    0.040534
Sum of atomic charges:   -0.0000000

LOEWDIN ATOMIC CHARGES
----------------------
   0 O :   -0.091167
   1 C :    0.069885
   2 C :   -0.102301
   3 C :    0.041467
   4 O :    0.044066
   5 C :    0.049064
   6 N :   -0.060577
   7 H :   -0.011430
   8 H :    0.033294
   9 H :    0.027698

  Mayer bond orders larger than 0.1
B(  0-O ,  1-C ) :   2.1951 B(  1-C ,  2-C ) :   0.9934 B(  1-C ,  7-H ) :   0.9332
B(  2-C ,  3-C ) :   1.4758 B(  2-C ,  6-N ) :   1.3085 B(  3-C ,  4-O ) :   1.1821
B(  3-C ,  8-H ) :   0.9840 B(  4-O ,  5-C ) :   1.1434 B(  5-C ,  6-N ) :   1.7589
B(  5-C ,  9-H ) :   0.9730

FINAL SINGLE POINT ENERGY      -358.729914453683

DIPOLE MOMENT
-------------
                                X             Y             Z
Electronic contribution:     -0.18263      -1.03326       0.21862
Nuclear contribution   :      1.14156       1.91817       0.72008
                        -----------------------------------------
Total Dipole Moment    :      0.95892       0.88491       0.93871
                        -----------------------------------------
Magnitude (a.u.)       :      1.60741
Magnitude (Debye)      :      4.08572

                             ****ORCA TERMINATED NORMALLY****
TOTAL RUN TIME: 0 days 0 hours 0 minutes 5 seconds 558 msec
