                         Program Version 3.0.3 - RELEASE   -
|  1> ! RI PBE def2-SVP def2-SVP/J NBO PAL2
|  2> % maxcore 2000
|  3> % output
|  4>     # printlevel mini
|  5>     print[ P_Basis ] 0
|  6>     print[ P_SCFInfo ] 1
|  7>     print[ P_SCFIterInfo ] 1
|  8>     print[ P_OrbEn ] 0
|  9>     print[ P_Cartesian ] 0
| 10> end
| 11> *xyz 0 1
| 12>  O        1.1560780000     0.7667180000     0.9867540000
| 13>  C        2.0639290000     0.0517300000     0.1752530000
| 14>  C        2.6797120000     0.9863440000    -0.8299000000
| 15>  C        3.7504620000     0.3525800000    -1.6957460000
| 16>  O        4.4604530000     1.3147810000    -2.4219660000
| 17>  C        1.9036370000     2.1255140000    -1.3436540000
| 18>  N        3.0198470000     2.3406840000    -0.4130000000
| 19>  H        0.8490790000     0.1901510000     1.6887860000
| 20>  H        1.5602790000    -0.7667260000    -0.3584550000
| 21>  H        2.8664600000    -0.3892780000     0.7838260000
| 22>  H        3.2984130000    -0.3440830000    -2.4091240000
| 23>  H        4.4256970000    -0.2296260000    -1.0469270000
| 24>  H        4.5207250000     2.0805680000    -1.8292850000
| 25>  H        0.9002430000     2.2633870000    -0.9583620000
| 26>  H        2.0839100000     2.4746550000    -2.3540760000
| 27>  H        2.6571750000     2.5152910000     0.5186940000
| 28> *
| 29>
| 30>                          ****END OF INPUT****
 Total Charge           Charge          ....    0
 Multiplicity           Mult            ....    1
 Number of Electrons    NEL             ....   56
 Basis Dimension        Dim             ....  143

MULLIKEN ATOMIC CHARGES
-----------------------
   0 O :   -0.271834
   1 C :    0.255093
   2 C :   -0.386371
   3 C :    0.305139
   4 O :   -0.282180
   5 C :    0.104314
   6 N :   -0.209879
   7 H :    0.163777
   8 H :    0.007341
   9 H :   -0.000131
  10 H :    0.006821
  11 H :   -0.014135
  12 H :    0.149629
  13 H :    0.035031
  14 H :    0.027553
  15 H :    0.109832
Sum of atomic charges:    0.0000000

LOEWDIN ATOMIC CHARGES
----------------------
   0 O :   -0.118046
   1 C :    0.062242
   2 C :   -0.071138
   3 C :    0.061271
   4 O :   -0.118954
   5 C :    0.013555
   6 N :   -0.094143
   7 H :    0.078165
   8 H :    0.013364
   9 H :    0.009312
  10 H :    0.019405
  11 H :    0.002058
  12 H :    0.053581
  13 H :    0.018933
  14 H :    0.018295
  15 H :    0.052099

  Mayer bond orders larger than 0.1
B(  0-O ,  1-C ) :   1.0885 B(  0-O ,  7-H ) :   0.9723 B(  1-C ,  2-C ) :   1.0199
B(  1-C ,  8-H ) :   0.9262 B(  1-C ,  9-H ) :   0.9200 B(  2-C ,  3-C ) :   0.9828
B(  2-C ,  5-C ) :   1.0305 B(  2-C ,  6-N ) :   1.0053 B(  3-C ,  4-O ) :   1.1109
B(  3-C , 10-H ) :   0.9322 B(  3-C , 11-H ) :   0.9166 B(  4-O , 12-H ) :   0.9452
B(  5-C ,  6-N ) :   0.9705 B(  5-C , 13-H ) :   0.9374 B(  5-C , 14-H ) :   0.9300
B(  6-N , 12-H ) :   0.1005 B(  6-N , 15-H ) :   0.9341

FINAL SINGLE POINT ENERGY      -362.286439653034

DIPOLE MOMENT
-------------
                                X             Y             Z
Electronic contribution:      0.43576       1.50488       0.18663
Nuclear contribution   :     -1.22432      -2.19603       0.88636
                        -----------------------------------------
Total Dipole Moment    :     -0.78856      -0.69115       1.07299
                        -----------------------------------------
Magnitude (a.u.)       :      1.50028
Magnitude (Debye)      :      3.81340

                             ****ORCA TERMINATED NORMALLY****
TOTAL RUN TIME: 0 days 0 hours 0 minutes 7 seconds 256 msec
