                         Program Version 3.0.3 - RELEASE   -
|  1> ! RI PBE def2-SVP def2-SVP/J NBO PAL2
|  2> % maxcore 2000
|  3> % output
|  4>     # printlevel mini
|  5>     print[ P_Basis ] 0
|  6>     print[ P_SCFInfo ] 1
|  7>     print[ P_SCFIterInfo ] 1
|  8>     print[ P_OrbEn ] 0
|  9>     print[ P_Cartesian ] 0
| 10> end
| 11> *xyz 0 1
| 12>  O        2.4339250000     1.0313160000    -0.5529970000
| 13>  C        2.2680200000    -0.0309900000    -0.0281250000
| 14>  C        2.9052410000    -0.4430180000     1.2787540000
| 15>  C        3.3441690000    -1.9038790000     1.3082810000
| 16>  O        2.7692020000    -2.4647500000     2.5043780000
| 17>  N        1.8653640000    -1.5855900000     3.0277650000
| 18>  C        1.8941550000    -0.4871140000     2.3955490000
| 19>  H        1.6002550000    -0.8004980000    -0.4754570000
| 20>  H        3.6991350000     0.2744490000     1.5056460000
| 21>  H        4.4244950000    -2.0356220000     1.3563040000
| 22>  H        2.9499810000    -2.4611740000     0.4505710000
| 23>  H        1.2515380000     0.3282820000     2.6992410000
| 24> *
| 25>
| 26>                          ****END OF INPUT****
 Total Charge           Charge          ....    0
 Multiplicity           Mult            ....    1
 Number of Electrons    NEL             ....   52
 Basis Dimension        Dim             ....  123

MULLIKEN ATOMIC CHARGES
-----------------------
   0 O :   -0.138987
   1 C :    0.129822
   2 C :   -0.189078
   3 C :    0.253815
   4 O :   -0.266782
   5 N :    0.048615
   6 C :   -0.012693
   7 H :   -0.000974
   8 H :    0.055203
   9 H :    0.048439
  10 H :    0.029725
  11 H :    0.042895
Sum of atomic charges:   -0.0000000

LOEWDIN ATOMIC CHARGES
----------------------
   0 O :   -0.087967
   1 C :    0.091394
   2 C :   -0.104975
   3 C :    0.071986
   4 O :   -0.082492
   5 N :    0.029610
   6 C :   -0.048688
   7 H :   -0.008148
   8 H :    0.048942
   9 H :    0.033663
  10 H :    0.021040
  11 H :    0.035636

  Mayer bond orders larger than 0.1
B(  0-O ,  1-C ) :   2.1937 B(  1-C ,  2-C ) :   0.9183 B(  1-C ,  7-H ) :   0.9220
B(  2-C ,  3-C ) :   1.0398 B(  2-C ,  6-C ) :   0.9530 B(  2-C ,  8-H ) :   0.8829
B(  3-C ,  4-O ) :   0.9303 B(  3-C ,  9-H ) :   0.9377 B(  3-C , 10-H ) :   0.9424
B(  4-O ,  5-N ) :   1.0163 B(  4-O ,  6-C ) :   0.1221 B(  5-N ,  6-C ) :   1.8853
B(  6-C , 11-H ) :   0.9733

FINAL SINGLE POINT ENERGY      -359.870005435346

DIPOLE MOMENT
-------------
                                X             Y             Z
Electronic contribution:     -0.95348       0.40712       1.06687
Nuclear contribution   :      1.30146      -0.41428      -1.37651
                        -----------------------------------------
Total Dipole Moment    :      0.34798      -0.00716      -0.30964
                        -----------------------------------------
Magnitude (a.u.)       :      0.46585
Magnitude (Debye)      :      1.18410

                             ****ORCA TERMINATED NORMALLY****
TOTAL RUN TIME: 0 days 0 hours 0 minutes 5 seconds 471 msec
