                         Program Version 3.0.3 - RELEASE   -
|  1> ! RI PBE def2-SVP def2-SVP/J NBO PAL2
|  2> % maxcore 2000
|  3> % output
|  4>     # printlevel mini
|  5>     print[ P_Basis ] 0
|  6>     print[ P_SCFInfo ] 1
|  7>     print[ P_SCFIterInfo ] 1
|  8>     print[ P_OrbEn ] 0
|  9>     print[ P_Cartesian ] 0
| 10> end
| 11> *xyz 0 1
| 12>  O        3.3523220000    -0.6217260000    -0.7960600000
| 13>  C        2.3146380000    -0.1215210000     0.0168980000
| 14>  C        2.9046240000     0.9530260000     0.9169980000
| 15>  C        1.8811020000     1.6350530000     1.8176760000
| 16>  O        1.6755580000     2.9414540000     1.2527060000
| 17>  N        2.6609210000     3.1931940000     0.3235530000
| 18>  C        3.3595130000     2.1512410000     0.1382680000
| 19>  H        2.9837990000    -1.2488620000    -1.4219250000
| 20>  H        1.8823100000    -0.9146190000     0.6432880000
| 21>  H        1.5055890000     0.3151280000    -0.5847960000
| 22>  H        3.7261630000     0.5074750000     1.4840080000
| 23>  H        2.2487440000     1.7566660000     2.8405610000
| 24>  H        0.9147710000     1.1257720000     1.8442530000
| 25>  H        4.1679450000     2.1705190000    -0.5795370000
| 26> *
| 27>
| 28>                          ****END OF INPUT****
 Total Charge           Charge          ....    0
 Multiplicity           Mult            ....    1
 Number of Electrons    NEL             ....   54
 Basis Dimension        Dim             ....  133

MULLIKEN ATOMIC CHARGES
-----------------------
   0 O :   -0.275379
   1 C :    0.201900
   2 C :   -0.216498
   3 C :    0.263224
   4 O :   -0.281818
   5 N :    0.027029
   6 C :   -0.012853
   7 H :    0.160538
   8 H :    0.005745
   9 H :    0.009709
  10 H :    0.036574
  11 H :    0.028091
  12 H :    0.020028
  13 H :    0.033711
Sum of atomic charges:   -0.0000000

LOEWDIN ATOMIC CHARGES
----------------------
   0 O :   -0.123114
   1 C :    0.065405
   2 C :   -0.081878
   3 C :    0.068584
   4 O :   -0.098965
   5 N :    0.012162
   6 C :   -0.048206
   7 H :    0.075692
   8 H :    0.005158
   9 H :    0.009183
  10 H :    0.039392
  11 H :    0.022076
  12 H :    0.023036
  13 H :    0.031474

  Mayer bond orders larger than 0.1
B(  0-O ,  1-C ) :   1.1109 B(  0-O ,  7-H ) :   0.9772 B(  1-C ,  2-C ) :   1.0205
B(  1-C ,  8-H ) :   0.9331 B(  1-C ,  9-H ) :   0.9276 B(  2-C ,  3-C ) :   1.0526
B(  2-C ,  6-C ) :   0.9728 B(  2-C , 10-H ) :   0.9067 B(  3-C ,  4-O ) :   0.9417
B(  3-C , 11-H ) :   0.9359 B(  3-C , 12-H ) :   0.9418 B(  4-O ,  5-N ) :   0.9915
B(  4-O ,  6-C ) :   0.1140 B(  5-N ,  6-C ) :   1.8957 B(  6-C , 13-H ) :   0.9740

FINAL SINGLE POINT ENERGY      -361.066832353180

DIPOLE MOMENT
-------------
                                X             Y             Z
Electronic contribution:      0.46634       4.18726      -0.63549
Nuclear contribution   :     -0.59738      -5.67609       0.65532
                        -----------------------------------------
Total Dipole Moment    :     -0.13104      -1.48884       0.01984
                        -----------------------------------------
Magnitude (a.u.)       :      1.49472
Magnitude (Debye)      :      3.79928

                             ****ORCA TERMINATED NORMALLY****
TOTAL RUN TIME: 0 days 0 hours 0 minutes 6 seconds 720 msec
