                         Program Version 3.0.3 - RELEASE   -
|  1> ! RI PBE def2-SVP def2-SVP/J NBO PAL2
|  2> % maxcore 2000
|  3> % output
|  4>     # printlevel mini
|  5>     print[ P_Basis ] 0
|  6>     print[ P_SCFInfo ] 1
|  7>     print[ P_SCFIterInfo ] 1
|  8>     print[ P_OrbEn ] 0
|  9>     print[ P_Cartesian ] 0
| 10> end
| 11> *xyz 0 1
| 12>  O        2.9172330000     0.0131270000    -1.1133600000
| 13>  C        2.3005720000     0.1519760000    -0.0877580000
| 14>  C        2.9088180000     0.7144090000     1.1399300000
| 15>  N        4.3512750000     0.8317010000     1.1915110000
| 16>  C        3.5913840000     2.0463310000     0.9674640000
| 17>  C        3.5464440000     3.0286700000     2.0102480000
| 18>  C        3.4895550000     3.8686540000     2.8653920000
| 19>  H        1.2335890000    -0.1349180000    -0.0161880000
| 20>  H        2.4081020000     0.5187480000     2.0816660000
| 21>  H        4.7174070000     0.5104560000     0.2956590000
| 22>  H        3.5701530000     2.4396730000    -0.0459040000
| 23>  H        3.4491580000     4.6101720000     3.6280390000
| 24> *
| 25>
| 26>                          ****END OF INPUT****
 Total Charge           Charge          ....    0
 Multiplicity           Mult            ....    1
 Number of Electrons    NEL             ....   50
 Basis Dimension        Dim             ....  123

MULLIKEN ATOMIC CHARGES
-----------------------
   0 O :   -0.174607
   1 C :    0.142992
   2 C :   -0.022256
   3 N :   -0.102686
   4 C :   -0.117758
   5 C :    0.492558
   6 C :   -0.445369
   7 H :   -0.000550
   8 H :    0.036290
   9 H :    0.114349
  10 H :    0.066348
  11 H :    0.010687
Sum of atomic charges:   -0.0000000

LOEWDIN ATOMIC CHARGES
----------------------
   0 O :   -0.115712
   1 C :    0.080339
   2 C :   -0.030681
   3 N :   -0.047788
   4 C :    0.015342
   5 C :   -0.019322
   6 C :   -0.051257
   7 H :   -0.000738
   8 H :    0.034175
   9 H :    0.057524
  10 H :    0.039275
  11 H :    0.038843

  Mayer bond orders larger than 0.1
B(  0-O ,  1-C ) :   2.1046 B(  1-C ,  2-C ) :   0.9524 B(  1-C ,  7-H ) :   0.9366
B(  2-C ,  3-N ) :   1.0070 B(  2-C ,  4-C ) :   0.9330 B(  2-C ,  8-H ) :   0.9266
B(  3-N ,  4-C ) :   1.0238 B(  3-N ,  9-H ) :   0.9163 B(  4-C ,  5-C ) :   0.9484
B(  4-C , 10-H ) :   0.9243 B(  5-C ,  6-C ) :   2.3037 B(  5-C , 11-H ) :  -0.1024
B(  6-C , 11-H ) :   1.0926

FINAL SINGLE POINT ENERGY      -322.764174507616

DIPOLE MOMENT
-------------
                                X             Y             Z
Electronic contribution:      0.49721      -0.36959      -0.91067
Nuclear contribution   :     -1.02759       0.63651       1.22204
                        -----------------------------------------
Total Dipole Moment    :     -0.53037       0.26692       0.31137
                        -----------------------------------------
Magnitude (a.u.)       :      0.67044
Magnitude (Debye)      :      1.70413

                             ****ORCA TERMINATED NORMALLY****
TOTAL RUN TIME: 0 days 0 hours 0 minutes 5 seconds 878 msec
