                         Program Version 3.0.3 - RELEASE   -
|  1> ! RI PBE def2-SVP def2-SVP/J NBO PAL2
|  2> % maxcore 2000
|  3> % output
|  4>     # printlevel mini
|  5>     print[ P_Basis ] 0
|  6>     print[ P_SCFInfo ] 1
|  7>     print[ P_SCFIterInfo ] 1
|  8>     print[ P_OrbEn ] 0
|  9>     print[ P_Cartesian ] 0
| 10> end
| 11> *xyz 0 1
| 12>  O        2.2270480000     0.6709160000     1.4656490000
| 13>  C        2.1493310000     0.1170280000     0.1687120000
| 14>  C        2.5336460000     1.1641880000    -0.8377290000
| 15>  N        2.1426270000     2.5457330000    -0.6481980000
| 16>  C        3.5653120000     2.1801490000    -0.5230320000
| 17>  C        4.4718050000     2.6967600000    -1.5567770000
| 18>  C        5.7580330000     2.9590690000    -1.3629200000
| 19>  H        1.8713740000     0.0399740000     2.0937130000
| 20>  H        1.1265280000    -0.2233900000    -0.0475590000
| 21>  H        2.8203890000    -0.7466740000     0.0626880000
| 22>  H        2.4599460000     0.8162240000    -1.8658360000
| 23>  H        1.7582160000     2.6503780000     0.2868830000
| 24>  H        3.9685690000     2.1368950000     0.4846380000
| 25>  H        4.0209660000     2.8608810000    -2.5330400000
| 26>  H        6.2257760000     2.8142840000    -0.3939720000
| 27>  H        6.3880250000     3.3276060000    -2.1634000000
| 28> *
| 29>
| 30>                          ****END OF INPUT****
 Total Charge           Charge          ....    0
 Multiplicity           Mult            ....    1
 Number of Electrons    NEL             ....   54
 Basis Dimension        Dim             ....  143

MULLIKEN ATOMIC CHARGES
-----------------------
   0 O :   -0.274918
   1 C :    0.221913
   2 C :   -0.082764
   3 N :   -0.167486
   4 C :   -0.071986
   5 C :    0.077005
   6 C :   -0.040735
   7 H :    0.163890
   8 H :    0.005880
   9 H :    0.012975
  10 H :    0.014902
  11 H :    0.106546
  12 H :    0.012987
  13 H :   -0.011833
  14 H :    0.013159
  15 H :    0.020463
Sum of atomic charges:   -0.0000000

LOEWDIN ATOMIC CHARGES
----------------------
   0 O :   -0.120369
   1 C :    0.054965
   2 C :   -0.016179
   3 N :   -0.093218
   4 C :   -0.003097
   5 C :   -0.021566
   6 C :   -0.071370
   7 H :    0.077995
   8 H :    0.011295
   9 H :    0.013469
  10 H :    0.022520
  11 H :    0.050717
  12 H :    0.020421
  13 H :    0.029104
  14 H :    0.020609
  15 H :    0.024703

  Mayer bond orders larger than 0.1
B(  0-O ,  1-C ) :   1.0794 B(  0-O ,  7-H ) :   0.9738 B(  1-C ,  2-C ) :   1.0462
B(  1-C ,  8-H ) :   0.9258 B(  1-C ,  9-H ) :   0.9256 B(  2-C ,  3-N ) :   1.0122
B(  2-C ,  4-C ) :   0.9570 B(  2-C , 10-H ) :   0.9207 B(  3-N ,  4-C ) :   0.9423
B(  3-N , 11-H ) :   0.9327 B(  4-C ,  5-C ) :   1.0664 B(  4-C , 12-H ) :   0.9442
B(  5-C ,  6-C ) :   1.9711 B(  5-C , 13-H ) :   0.9369 B(  6-C , 14-H ) :   0.9528
B(  6-C , 15-H ) :   0.9324

FINAL SINGLE POINT ENERGY      -325.203653639938

DIPOLE MOMENT
-------------
                                X             Y             Z
Electronic contribution:     -1.85129       0.60080       1.04757
Nuclear contribution   :      1.59976      -1.63288      -0.46533
                        -----------------------------------------
Total Dipole Moment    :     -0.25153      -1.03207       0.58224
                        -----------------------------------------
Magnitude (a.u.)       :      1.21138
Magnitude (Debye)      :      3.07909

                             ****ORCA TERMINATED NORMALLY****
TOTAL RUN TIME: 0 days 0 hours 0 minutes 6 seconds 897 msec
