                         Program Version 3.0.3 - RELEASE   -
|  1> ! RI PBE def2-SVP def2-SVP/J NBO PAL2
|  2> % maxcore 2000
|  3> % output
|  4>     # printlevel mini
|  5>     print[ P_Basis ] 0
|  6>     print[ P_SCFInfo ] 1
|  7>     print[ P_SCFIterInfo ] 1
|  8>     print[ P_OrbEn ] 0
|  9>     print[ P_Cartesian ] 0
| 10> end
| 11> *xyz 0 1
| 12>  O        2.9374810000     1.1612530000     0.2882120000
| 13>  C        2.3900120000    -0.1121180000     0.0335810000
| 14>  C        2.9593780000    -1.0833930000     1.0195160000
| 15>  N        2.9185110000    -2.5056710000     0.7329000000
| 16>  C        4.2128180000    -1.8075560000     0.6926410000
| 17>  C        5.1801360000    -2.1466620000     1.6959820000
| 18>  C        6.0070450000    -2.4115370000     2.5248020000
| 19>  H        2.4515350000     1.8147090000    -0.2196540000
| 20>  H        2.6275640000    -0.4563020000    -0.9859320000
| 21>  H        1.2951910000    -0.1002950000     0.1336580000
| 22>  H        2.7834690000    -0.8374100000     2.0623040000
| 23>  H        2.5973130000    -2.6685830000    -0.2173280000
| 24>  H        4.6333020000    -1.5944270000    -0.2870230000
| 25>  H        6.7339550000    -2.6503160000     3.2643310000
| 26> *
| 27>
| 28>                          ****END OF INPUT****
 Total Charge           Charge          ....    0
 Multiplicity           Mult            ....    1
 Number of Electrons    NEL             ....   52
 Basis Dimension        Dim             ....  133

MULLIKEN ATOMIC CHARGES
-----------------------
   0 O :   -0.268966
   1 C :    0.228465
   2 C :   -0.055366
   3 N :   -0.133359
   4 C :   -0.128608
   5 C :    0.496487
   6 C :   -0.470165
   7 H :    0.158383
   8 H :   -0.026897
   9 H :    0.015759
  10 H :    0.032123
  11 H :    0.106097
  12 H :    0.043968
  13 H :    0.002078
Sum of atomic charges:   -0.0000000

LOEWDIN ATOMIC CHARGES
----------------------
   0 O :   -0.120636
   1 C :    0.049198
   2 C :    0.005305
   3 N :   -0.073778
   4 C :   -0.012035
   5 C :   -0.014426
   6 C :   -0.071901
   7 H :    0.072901
   8 H :   -0.000057
   9 H :    0.012585
  10 H :    0.030388
  11 H :    0.054111
  12 H :    0.033598
  13 H :    0.034745

  Mayer bond orders larger than 0.1
B(  0-O ,  1-C ) :   1.1087 B(  0-O ,  7-H ) :   0.9762 B(  1-C ,  2-C ) :   1.0476
B(  1-C ,  8-H ) :   0.8998 B(  1-C ,  9-H ) :   0.9236 B(  2-C ,  3-N ) :   0.9800
B(  2-C ,  4-C ) :   0.9771 B(  2-C , 10-H ) :   0.9255 B(  3-N ,  4-C ) :   1.0233
B(  3-N , 11-H ) :   0.9351 B(  4-C ,  5-C ) :   0.9643 B(  4-C , 12-H ) :   0.9155
B(  5-C ,  6-C ) :   2.3062 B(  5-C , 13-H ) :  -0.1037 B(  6-C , 13-H ) :   1.0938

FINAL SINGLE POINT ENERGY      -323.951695230769

DIPOLE MOMENT
-------------
                                X             Y             Z
Electronic contribution:      2.13920      -1.10070       1.70029
Nuclear contribution   :     -2.69422       1.63680      -2.59976
                        -----------------------------------------
Total Dipole Moment    :     -0.55502       0.53609      -0.89947
                        -----------------------------------------
Magnitude (a.u.)       :      1.18512
Magnitude (Debye)      :      3.01232

                             ****ORCA TERMINATED NORMALLY****
TOTAL RUN TIME: 0 days 0 hours 0 minutes 6 seconds 284 msec
