                         Program Version 3.0.3 - RELEASE   -
|  1> ! RI PBE def2-SVP def2-SVP/J NBO PAL2
|  2> % maxcore 2000
|  3> % output
|  4>     # printlevel mini
|  5>     print[ P_Basis ] 0
|  6>     print[ P_SCFInfo ] 1
|  7>     print[ P_SCFIterInfo ] 1
|  8>     print[ P_OrbEn ] 0
|  9>     print[ P_Cartesian ] 0
| 10> end
| 11> *xyz 0 1
| 12>  O        1.1983060000    -0.7654530000     0.4349160000
| 13>  C        2.0105720000    -0.0939570000    -0.1445950000
| 14>  C        2.9474120000    -0.6735910000    -1.1442730000
| 15>  N        3.0780280000    -2.1133810000    -1.1906930000
| 16>  C        2.2937920000    -1.4806780000    -2.2283950000
| 17>  C        2.8398390000    -1.4647670000    -3.5595530000
| 18>  N        3.2524320000    -1.4276230000    -4.6318360000
| 19>  H        2.1003060000     0.9932260000     0.0387260000
| 20>  H        3.8353030000    -0.1021790000    -1.3917470000
| 21>  H        2.4403320000    -2.5113230000    -0.5013900000
| 22>  H        1.2111680000    -1.5561750000    -2.1813590000
| 23> *
| 24>
| 25>                          ****END OF INPUT****
 Total Charge           Charge          ....    0
 Multiplicity           Mult            ....    1
 Number of Electrons    NEL             ....   50
 Basis Dimension        Dim             ....  118

MULLIKEN ATOMIC CHARGES
-----------------------
   0 O :   -0.165207
   1 C :    0.151521
   2 C :   -0.022596
   3 N :   -0.091789
   4 C :   -0.179757
   5 C :   -0.034431
   6 N :    0.071572
   7 H :    0.010854
   8 H :    0.051486
   9 H :    0.121827
  10 H :    0.086520
Sum of atomic charges:    0.0000000

LOEWDIN ATOMIC CHARGES
----------------------
   0 O :   -0.103889
   1 C :    0.087152
   2 C :   -0.024174
   3 N :   -0.035886
   4 C :   -0.001881
   5 C :   -0.038567
   6 N :   -0.036810
   7 H :    0.004347
   8 H :    0.039530
   9 H :    0.062248
  10 H :    0.047930

  Mayer bond orders larger than 0.1
B(  0-O ,  1-C ) :   2.1140 B(  1-C ,  2-C ) :   0.9423 B(  1-C ,  7-H ) :   0.9398
B(  2-C ,  3-N ) :   1.0007 B(  2-C ,  4-C ) :   0.9672 B(  2-C ,  8-H ) :   0.9244
B(  3-N ,  4-C ) :   1.0884 B(  3-N ,  9-H ) :   0.9163 B(  4-C ,  5-C ) :   1.0538
B(  4-C , 10-H ) :   0.9192 B(  5-C ,  6-N ) :   3.0446

FINAL SINGLE POINT ENERGY      -338.839294302444

DIPOLE MOMENT
-------------
                                X             Y             Z
Electronic contribution:      0.02621      -0.73760      -1.71828
Nuclear contribution   :     -0.34007       1.30064       2.62393
                        -----------------------------------------
Total Dipole Moment    :     -0.31386       0.56303       0.90565
                        -----------------------------------------
Magnitude (a.u.)       :      1.11163
Magnitude (Debye)      :      2.82555

                             ****ORCA TERMINATED NORMALLY****
TOTAL RUN TIME: 0 days 0 hours 0 minutes 5 seconds 454 msec
