                         Program Version 3.0.3 - RELEASE   -
|  1> ! RI PBE def2-SVP def2-SVP/J NBO PAL2
|  2> % maxcore 2000
|  3> % output
|  4>     # printlevel mini
|  5>     print[ P_Basis ] 0
|  6>     print[ P_SCFInfo ] 1
|  7>     print[ P_SCFIterInfo ] 1
|  8>     print[ P_OrbEn ] 0
|  9>     print[ P_Cartesian ] 0
| 10> end
| 11> *xyz 0 1
| 12>  O        1.1914410000    -0.2696540000     0.2849170000
| 13>  C        2.5442520000     0.0287080000     0.0397550000
| 14>  C        3.0409820000     0.9066610000     1.1465690000
| 15>  N        4.1997980000     1.7515660000     0.9397390000
| 16>  C        2.8779130000     2.3767920000     1.0232390000
| 17>  C        2.6245280000     3.1997410000     2.1753940000
| 18>  N        2.3941680000     3.8594930000     3.0884380000
| 19>  H        0.9162910000    -0.9799930000    -0.2990350000
| 20>  H        2.6762380000     0.5528680000    -0.9205770000
| 21>  H        3.1569690000    -0.8828660000     0.0079040000
| 22>  H        2.9771580000     0.4781280000     2.1419390000
| 23>  H        4.5012690000     1.7304750000    -0.0301340000
| 24>  H        2.4127020000     2.7401710000     0.1118420000
| 25> *
| 26>
| 27>                          ****END OF INPUT****
 Total Charge           Charge          ....    0
 Multiplicity           Mult            ....    1
 Number of Electrons    NEL             ....   52
 Basis Dimension        Dim             ....  128

MULLIKEN ATOMIC CHARGES
-----------------------
   0 O :   -0.266408
   1 C :    0.236828
   2 C :   -0.059625
   3 N :   -0.117546
   4 C :   -0.185947
   5 C :   -0.047690
   6 N :    0.059349
   7 H :    0.162178
   8 H :   -0.022347
   9 H :    0.018024
  10 H :    0.045476
  11 H :    0.114656
  12 H :    0.063052
Sum of atomic charges:    0.0000000

LOEWDIN ATOMIC CHARGES
----------------------
   0 O :   -0.117333
   1 C :    0.051863
   2 C :    0.011741
   3 N :   -0.060871
   4 C :   -0.026707
   5 C :   -0.036279
   6 N :   -0.053455
   7 H :    0.076007
   8 H :    0.001972
   9 H :    0.015822
  10 H :    0.035482
  11 H :    0.059540
  12 H :    0.042220

  Mayer bond orders larger than 0.1
B(  0-O ,  1-C ) :   1.1126 B(  0-O ,  7-H ) :   0.9743 B(  1-C ,  2-C ) :   1.0499
B(  1-C ,  8-H ) :   0.8999 B(  1-C ,  9-H ) :   0.9230 B(  2-C ,  3-N ) :   0.9774
B(  2-C ,  4-C ) :   0.9962 B(  2-C , 10-H ) :   0.9242 B(  3-N ,  4-C ) :   1.0904
B(  3-N , 11-H ) :   0.9332 B(  4-C ,  5-C ) :   1.0722 B(  4-C , 12-H ) :   0.9121
B(  5-C ,  6-N ) :   3.0504

FINAL SINGLE POINT ENERGY      -340.029543788146

DIPOLE MOMENT
-------------
                                X             Y             Z
Electronic contribution:     -0.49102       4.10438       3.67787
Nuclear contribution   :      0.60009      -5.56060      -5.63384
                        -----------------------------------------
Total Dipole Moment    :      0.10907      -1.45622      -1.95598
                        -----------------------------------------
Magnitude (a.u.)       :      2.44097
Magnitude (Debye)      :      6.20445

                             ****ORCA TERMINATED NORMALLY****
TOTAL RUN TIME: 0 days 0 hours 0 minutes 5 seconds 668 msec
