                         Program Version 3.0.3 - RELEASE   -
|  1> ! RI PBE def2-SVP def2-SVP/J NBO PAL2
|  2> % maxcore 2000
|  3> % output
|  4>     # printlevel mini
|  5>     print[ P_Basis ] 0
|  6>     print[ P_SCFInfo ] 1
|  7>     print[ P_SCFIterInfo ] 1
|  8>     print[ P_OrbEn ] 0
|  9>     print[ P_Cartesian ] 0
| 10> end
| 11> *xyz 0 1
| 12>  O        0.8740610000    -0.4034790000     0.1910120000
| 13>  C        2.2288710000    -0.0692880000    -0.0253040000
| 14>  C        2.8198910000    -1.0276940000    -1.0195640000
| 15>  N        2.4483480000    -2.4357040000    -0.9801800000
| 16>  C        2.0143810000    -1.6001790000    -2.1101770000
| 17>  C        2.6275420000    -1.9960780000    -3.4199750000
| 18>  O        2.1355200000    -3.2412140000    -3.8601540000
| 19>  H        0.5349380000     0.1273610000     0.9137920000
| 20>  H        2.8000290000    -0.1332350000     0.9116380000
| 21>  H        2.3304950000     0.9547990000    -0.4107940000
| 22>  H        3.8781450000    -0.8526100000    -1.2016020000
| 23>  H        1.6690440000    -2.5418890000    -0.3368010000
| 24>  H        0.9617160000    -1.3343190000    -2.1345970000
| 25>  H        3.7213330000    -2.0216630000    -3.3138110000
| 26>  H        2.3813090000    -1.2689120000    -4.1979740000
| 27>  H        2.2733790000    -3.8544880000    -3.1300900000
| 28> *
| 29>
| 30>                          ****END OF INPUT****
 Total Charge           Charge          ....    0
 Multiplicity           Mult            ....    1
 Number of Electrons    NEL             ....   56
 Basis Dimension        Dim             ....  143

MULLIKEN ATOMIC CHARGES
-----------------------
   0 O :   -0.276667
   1 C :    0.224083
   2 C :   -0.101402
   3 N :   -0.189980
   4 C :   -0.144985
   5 C :    0.304100
   6 O :   -0.294580
   7 H :    0.164029
   8 H :    0.009730
   9 H :    0.009856
  10 H :    0.017836
  11 H :    0.108706
  12 H :    0.027723
  13 H :   -0.018535
  14 H :    0.008763
  15 H :    0.151323
Sum of atomic charges:    0.0000000

LOEWDIN ATOMIC CHARGES
----------------------
   0 O :   -0.120512
   1 C :    0.055161
   2 C :   -0.019552
   3 N :   -0.107313
   4 C :   -0.024748
   5 C :    0.052877
   6 O :   -0.123400
   7 H :    0.078082
   8 H :    0.011895
   9 H :    0.013085
  10 H :    0.022740
  11 H :    0.050476
  12 H :    0.018411
  13 H :    0.005883
  14 H :    0.022171
  15 H :    0.064745

  Mayer bond orders larger than 0.1
B(  0-O ,  1-C ) :   1.0828 B(  0-O ,  7-H ) :   0.9729 B(  1-C ,  2-C ) :   1.0427
B(  1-C ,  8-H ) :   0.9253 B(  1-C ,  9-H ) :   0.9278 B(  2-C ,  3-N ) :   1.0180
B(  2-C ,  4-C ) :   0.9741 B(  2-C , 10-H ) :   0.9126 B(  3-N ,  4-C ) :   0.9429
B(  3-N , 11-H ) :   0.9344 B(  4-C ,  5-C ) :   1.0486 B(  4-C , 12-H ) :   0.9367
B(  5-C ,  6-O ) :   1.0563 B(  5-C , 13-H ) :   0.9075 B(  5-C , 14-H ) :   0.9318
B(  6-O , 15-H ) :   0.9790

FINAL SINGLE POINT ENERGY      -362.282296619478

DIPOLE MOMENT
-------------
                                X             Y             Z
Electronic contribution:     -1.36255      -1.79632      -0.19834
Nuclear contribution   :      1.28602       2.82293       1.35537
                        -----------------------------------------
Total Dipole Moment    :     -0.07653       1.02660       1.15702
                        -----------------------------------------
Magnitude (a.u.)       :      1.54870
Magnitude (Debye)      :      3.93648

                             ****ORCA TERMINATED NORMALLY****
TOTAL RUN TIME: 0 days 0 hours 0 minutes 6 seconds 946 msec
