                         Program Version 3.0.3 - RELEASE   -
|  1> ! RI PBE def2-SVP def2-SVP/J NBO PAL2
|  2> % maxcore 2000
|  3> % output
|  4>     # printlevel mini
|  5>     print[ P_Basis ] 0
|  6>     print[ P_SCFInfo ] 1
|  7>     print[ P_SCFIterInfo ] 1
|  8>     print[ P_OrbEn ] 0
|  9>     print[ P_Cartesian ] 0
| 10> end
| 11> *xyz 0 1
| 12>  O        0.8889230000    -0.1845990000    -0.1703310000
| 13>  C        1.9990980000     0.2416630000     0.0177840000
| 14>  C        2.9990310000     0.3798140000    -1.0696030000
| 15>  N        2.7233140000    -0.2586920000    -2.3306490000
| 16>  C        2.5517750000     1.1819200000    -2.2593650000
| 17>  C        3.5681530000     2.0161850000    -2.9661300000
| 18>  O        4.7397960000     1.7654240000    -2.9859670000
| 19>  H        2.3316860000     0.5546430000     1.0263570000
| 20>  H        4.0466880000     0.4566960000    -0.7966840000
| 21>  H        1.8025170000    -0.6929440000    -2.2626770000
| 22>  H        1.5386900000     1.5735130000    -2.2311100000
| 23>  H        3.1640300000     2.9172860000    -3.4727260000
| 24> *
| 25>
| 26>                          ****END OF INPUT****
 Total Charge           Charge          ....    0
 Multiplicity           Mult            ....    1
 Number of Electrons    NEL             ....   52
 Basis Dimension        Dim             ....  123

MULLIKEN ATOMIC CHARGES
-----------------------
   0 O :   -0.173419
   1 C :    0.158090
   2 C :   -0.036183
   3 N :   -0.112937
   4 C :   -0.049414
   5 C :    0.161975
   6 O :   -0.136763
   7 H :   -0.002952
   8 H :    0.046164
   9 H :    0.118881
  10 H :    0.039043
  11 H :   -0.012485
Sum of atomic charges:   -0.0000000

LOEWDIN ATOMIC CHARGES
----------------------
   0 O :   -0.112541
   1 C :    0.083457
   2 C :   -0.027602
   3 N :   -0.036751
   4 C :   -0.022604
   5 C :    0.090564
   6 O :   -0.087257
   7 H :   -0.000431
   8 H :    0.034327
   9 H :    0.060078
  10 H :    0.025120
  11 H :   -0.006362

  Mayer bond orders larger than 0.1
B(  0-O ,  1-C ) :   2.1124 B(  1-C ,  2-C ) :   0.9456 B(  1-C ,  7-H ) :   0.9379
B(  2-C ,  3-N ) :   1.0251 B(  2-C ,  4-C ) :   0.9224 B(  2-C ,  8-H ) :   0.9186
B(  3-N ,  4-C ) :   0.9604 B(  3-N ,  9-H ) :   0.9204 B(  4-C ,  5-C ) :   0.9320
B(  4-C , 10-H ) :   0.9300 B(  5-C ,  6-O ) :   2.2062 B(  5-C , 11-H ) :   0.9347

FINAL SINGLE POINT ENERGY      -359.888952856477

DIPOLE MOMENT
-------------
                                X             Y             Z
Electronic contribution:      0.48823      -0.55285      -0.27902
Nuclear contribution   :     -0.91744       1.08111       0.61535
                        -----------------------------------------
Total Dipole Moment    :     -0.42921       0.52826       0.33632
                        -----------------------------------------
Magnitude (a.u.)       :      0.75920
Magnitude (Debye)      :      1.92975

                             ****ORCA TERMINATED NORMALLY****
TOTAL RUN TIME: 0 days 0 hours 0 minutes 5 seconds 591 msec
