                         Program Version 3.0.3 - RELEASE   -
|  1> ! RI PBE def2-SVP def2-SVP/J NBO PAL2
|  2> % maxcore 2000
|  3> % output
|  4>     # printlevel mini
|  5>     print[ P_Basis ] 0
|  6>     print[ P_SCFInfo ] 1
|  7>     print[ P_SCFIterInfo ] 1
|  8>     print[ P_OrbEn ] 0
|  9>     print[ P_Cartesian ] 0
| 10> end
| 11> *xyz 0 1
| 12>  O        2.9902030000    -0.4776330000    -1.1692490000
| 13>  C        2.3845390000    -0.0378080000     0.0253930000
| 14>  C        2.8513310000    -0.9130000000     1.1551410000
| 15>  N        3.1203580000    -2.3115970000     0.9437410000
| 16>  C        4.2554310000    -1.4050070000     1.1764310000
| 17>  C        4.9296470000    -1.5684130000     2.4807780000
| 18>  O        6.0483230000    -1.1989530000     2.7164660000
| 19>  H        2.6687770000     0.0554500000    -1.8985640000
| 20>  H        1.2896240000    -0.1076420000    -0.0409510000
| 21>  H        2.6435590000     1.0055430000     0.2496830000
| 22>  H        2.3729210000    -0.6861510000     2.1054720000
| 23>  H        3.0800340000    -2.5126730000    -0.0518340000
| 24>  H        4.8863250000    -1.1278260000     0.3389540000
| 25>  H        4.3013270000    -2.0633700000     3.2536290000
| 26> *
| 27>
| 28>                          ****END OF INPUT****
 Total Charge           Charge          ....    0
 Multiplicity           Mult            ....    1
 Number of Electrons    NEL             ....   54
 Basis Dimension        Dim             ....  133

MULLIKEN ATOMIC CHARGES
-----------------------
   0 O :   -0.274788
   1 C :    0.216382
   2 C :   -0.093338
   3 N :   -0.152434
   4 C :   -0.091888
   5 C :    0.195455
   6 O :   -0.161888
   7 H :    0.167227
   8 H :    0.023927
   9 H :    0.019694
  10 H :    0.027131
  11 H :    0.115835
  12 H :    0.031847
  13 H :   -0.023161
Sum of atomic charges:   -0.0000000

LOEWDIN ATOMIC CHARGES
----------------------
   0 O :   -0.117550
   1 C :    0.055615
   2 C :   -0.005119
   3 N :   -0.076966
   4 C :   -0.036944
   5 C :    0.082098
   6 O :   -0.113342
   7 H :    0.080866
   8 H :    0.016530
   9 H :    0.017193
  10 H :    0.025234
  11 H :    0.057198
  12 H :    0.026577
  13 H :   -0.011392

  Mayer bond orders larger than 0.1
B(  0-O ,  1-C ) :   1.0815 B(  0-O ,  7-H ) :   0.9711 B(  1-C ,  2-C ) :   1.0415
B(  1-C ,  8-H ) :   0.9296 B(  1-C ,  9-H ) :   0.9252 B(  2-C ,  3-N ) :   1.0177
B(  2-C ,  4-C ) :   0.9222 B(  2-C , 10-H ) :   0.9246 B(  3-N ,  4-C ) :   0.9321
B(  3-N , 11-H ) :   0.9298 B(  4-C ,  5-C ) :   0.9790 B(  4-C , 12-H ) :   0.9414
B(  5-C ,  6-O ) :   2.1735 B(  5-C , 13-H ) :   0.9146

FINAL SINGLE POINT ENERGY      -361.085984726162

DIPOLE MOMENT
-------------
                                X             Y             Z
Electronic contribution:      3.62686      -1.38947       1.67384
Nuclear contribution   :     -4.92626       2.16371      -2.79467
                        -----------------------------------------
Total Dipole Moment    :     -1.29940       0.77423      -1.12083
                        -----------------------------------------
Magnitude (a.u.)       :      1.88259
Magnitude (Debye)      :      4.78516

                             ****ORCA TERMINATED NORMALLY****
TOTAL RUN TIME: 0 days 0 hours 0 minutes 6 seconds 451 msec
