                         Program Version 3.0.3 - RELEASE   -
|  1> ! RI PBE def2-SVP def2-SVP/J NBO PAL2
|  2> % maxcore 2000
|  3> % output
|  4>     # printlevel mini
|  5>     print[ P_Basis ] 0
|  6>     print[ P_SCFInfo ] 1
|  7>     print[ P_SCFIterInfo ] 1
|  8>     print[ P_OrbEn ] 0
|  9>     print[ P_Cartesian ] 0
| 10> end
| 11> *xyz 0 1
| 12>  O        1.0638340000     0.2648380000    -0.0844890000
| 13>  C        2.4082450000    -0.0882230000     0.1479320000
| 14>  C        2.8225900000    -1.0878910000    -0.8975560000
| 15>  N        4.2440050000    -1.5117280000    -0.8497770000
| 16>  C        3.8319410000    -2.9184210000    -1.0875740000
| 17>  C        2.3698220000    -2.5571010000    -0.7833670000
| 18>  O        1.3398120000    -3.0582960000    -1.5755820000
| 19>  H        0.7846780000     0.8847630000     0.5924250000
| 20>  H        2.5384980000    -0.5345410000     1.1466200000
| 21>  H        3.0717290000     0.7871530000     0.0833810000
| 22>  H        2.5891240000    -0.6765970000    -1.8890130000
| 23>  H        4.6026510000    -1.4112080000     0.0937940000
| 24>  H        4.3164370000    -3.6720190000    -0.4631640000
| 25>  H        3.9824840000    -3.1888410000    -2.1389630000
| 26>  H        2.1043920000    -2.7982060000     0.2499780000
| 27>  H        1.5044580000    -2.8038810000    -2.4881430000
| 28> *
| 29>
| 30>                          ****END OF INPUT****
 Total Charge           Charge          ....    0
 Multiplicity           Mult            ....    1
 Number of Electrons    NEL             ....   56
 Basis Dimension        Dim             ....  143

MULLIKEN ATOMIC CHARGES
-----------------------
   0 O :   -0.269135
   1 C :    0.214079
   2 C :   -0.027866
   3 N :   -0.258181
   4 C :    0.165352
   5 C :    0.040995
   6 O :   -0.235107
   7 H :    0.157056
   8 H :   -0.025247
   9 H :    0.005068
  10 H :   -0.005019
  11 H :    0.090715
  12 H :    0.012646
  13 H :   -0.008329
  14 H :   -0.011005
  15 H :    0.153979
Sum of atomic charges:   -0.0000000

LOEWDIN ATOMIC CHARGES
----------------------
   0 O :   -0.120434
   1 C :    0.048904
   2 C :   -0.011988
   3 N :   -0.113086
   4 C :    0.010788
   5 C :    0.029881
   6 O :   -0.094863
   7 H :    0.073004
   8 H :   -0.003145
   9 H :    0.007033
  10 H :    0.015944
  11 H :    0.046463
  12 H :    0.013119
  13 H :    0.011952
  14 H :    0.019488
  15 H :    0.066939

  Mayer bond orders larger than 0.1
B(  0-O ,  1-C ) :   1.1186 B(  0-O ,  7-H ) :   0.9772 B(  1-C ,  2-C ) :   1.0644
B(  1-C ,  8-H ) :   0.9044 B(  1-C ,  9-H ) :   0.9256 B(  2-C ,  3-N ) :   1.0537
B(  2-C ,  5-C ) :   0.9923 B(  2-C , 10-H ) :   0.8798 B(  3-N ,  4-C ) :   1.0558
B(  3-N , 11-H ) :   0.9342 B(  4-C ,  5-C ) :   1.0546 B(  4-C , 12-H ) :   0.9339
B(  4-C , 13-H ) :   0.9112 B(  5-C ,  6-O ) :   1.1215 B(  5-C , 14-H ) :   0.8789
B(  6-O , 15-H ) :   0.9755

FINAL SINGLE POINT ENERGY      -362.276930208666

DIPOLE MOMENT
-------------
                                X             Y             Z
Electronic contribution:     -2.27057      -0.08056      -0.99887
Nuclear contribution   :      2.52445       0.46241       1.60449
                        -----------------------------------------
Total Dipole Moment    :      0.25388       0.38186       0.60562
                        -----------------------------------------
Magnitude (a.u.)       :      0.75964
Magnitude (Debye)      :      1.93084

                             ****ORCA TERMINATED NORMALLY****
TOTAL RUN TIME: 0 days 0 hours 0 minutes 7 seconds 217 msec
