                         Program Version 3.0.3 - RELEASE   -
|  1> ! RI PBE def2-SVP def2-SVP/J NBO PAL2
|  2> % maxcore 2000
|  3> % output
|  4>     # printlevel mini
|  5>     print[ P_Basis ] 0
|  6>     print[ P_SCFInfo ] 1
|  7>     print[ P_SCFIterInfo ] 1
|  8>     print[ P_OrbEn ] 0
|  9>     print[ P_Cartesian ] 0
| 10> end
| 11> *xyz 0 1
| 12>  O        1.7721490000     0.2013940000     1.3079720000
| 13>  C        2.0286180000    -0.2290650000     0.2168130000
| 14>  C        3.1039790000    -1.2503830000    -0.0250310000
| 15>  N        3.8244370000    -1.7147320000     1.1578390000
| 16>  C        3.1479280000    -3.0303920000     1.1571600000
| 17>  C        2.5384480000    -2.6829890000    -0.1888500000
| 18>  O        1.9237740000    -3.2473930000    -1.0316180000
| 19>  H        1.4749580000     0.0978600000    -0.6849270000
| 20>  H        3.7259610000    -0.9251370000    -0.8689130000
| 21>  H        3.5906170000    -1.1479040000     1.9661130000
| 22>  H        2.3789630000    -3.1653390000     1.9275290000
| 23>  H        3.8174670000    -3.8945090000     1.1632130000
| 24> *
| 25>
| 26>                          ****END OF INPUT****
 Total Charge           Charge          ....    0
 Multiplicity           Mult            ....    1
 Number of Electrons    NEL             ....   52
 Basis Dimension        Dim             ....  123

MULLIKEN ATOMIC CHARGES
-----------------------
   0 O :   -0.158787
   1 C :    0.147009
   2 C :   -0.053007
   3 N :   -0.218190
   4 C :    0.125652
   5 C :   -0.039050
   6 O :   -0.090654
   7 H :    0.008175
   8 H :    0.063980
   9 H :    0.104371
  10 H :    0.054440
  11 H :    0.056061
Sum of atomic charges:   -0.0000000

LOEWDIN ATOMIC CHARGES
----------------------
   0 O :   -0.100882
   1 C :    0.087077
   2 C :   -0.061836
   3 N :   -0.093708
   4 C :    0.004332
   5 C :    0.060792
   6 O :   -0.069798
   7 H :    0.001753
   8 H :    0.047958
   9 H :    0.048712
  10 H :    0.038623
  11 H :    0.036977

  Mayer bond orders larger than 0.1
B(  0-O ,  1-C ) :   2.1514 B(  1-C ,  2-C ) :   0.9144 B(  1-C ,  7-H ) :   0.9267
B(  2-C ,  3-N ) :   1.1173 B(  2-C ,  4-C ) :  -0.1101 B(  2-C ,  5-C ) :   0.8778
B(  2-C ,  8-H ) :   0.8731 B(  3-N ,  4-C ) :   1.0561 B(  3-N ,  9-H ) :   0.9139
B(  4-C ,  5-C ) :   0.9802 B(  4-C , 10-H ) :   0.9106 B(  4-C , 11-H ) :   0.9170
B(  5-C ,  6-O ) :   2.2566

FINAL SINGLE POINT ENERGY      -359.900363719960

DIPOLE MOMENT
-------------
                                X             Y             Z
Electronic contribution:     -1.60836       0.47620      -1.42011
Nuclear contribution   :      1.84369      -0.50632       1.47956
                        -----------------------------------------
Total Dipole Moment    :      0.23533      -0.03012       0.05945
                        -----------------------------------------
Magnitude (a.u.)       :      0.24459
Magnitude (Debye)      :      0.62169

                             ****ORCA TERMINATED NORMALLY****
TOTAL RUN TIME: 0 days 0 hours 0 minutes 5 seconds 636 msec
