                         Program Version 3.0.3 - RELEASE   -
|  1> ! RI PBE def2-SVP def2-SVP/J NBO PAL2
|  2> % maxcore 2000
|  3> % output
|  4>     # printlevel mini
|  5>     print[ P_Basis ] 0
|  6>     print[ P_SCFInfo ] 1
|  7>     print[ P_SCFIterInfo ] 1
|  8>     print[ P_OrbEn ] 0
|  9>     print[ P_Cartesian ] 0
| 10> end
| 11> *xyz 0 1
| 12>  O        1.0801500000     0.0813470000     0.1660270000
| 13>  C        2.4547280000    -0.1765120000     0.0383610000
| 14>  C        2.7053790000    -0.7547220000    -1.3421040000
| 15>  N        4.1284440000    -0.9649990000    -1.6824990000
| 16>  C        4.0209390000    -2.4362390000    -1.6051120000
| 17>  C        2.5129580000    -2.2702220000    -1.4480270000
| 18>  O        1.5841260000    -3.0121160000    -1.4221890000
| 19>  H        0.8692030000     0.2147660000     1.0922880000
| 20>  H        2.8116080000    -0.8782540000     0.8062660000
| 21>  H        3.0468210000     0.7476620000     0.1307450000
| 22>  H        2.1518410000    -0.1658930000    -2.0811860000
| 23>  H        4.7734690000    -0.5599140000    -1.0167800000
| 24>  H        4.4868460000    -2.9093080000    -0.7322160000
| 25>  H        4.3435900000    -2.9650980000    -2.5063840000
| 26> *
| 27>
| 28>                          ****END OF INPUT****
 Total Charge           Charge          ....    0
 Multiplicity           Mult            ....    1
 Number of Electrons    NEL             ....   54
 Basis Dimension        Dim             ....  133

MULLIKEN ATOMIC CHARGES
-----------------------
   0 O :   -0.261072
   1 C :    0.221716
   2 C :   -0.079833
   3 N :   -0.232555
   4 C :    0.108487
   5 C :   -0.029908
   6 O :   -0.106216
   7 H :    0.160700
   8 H :   -0.016277
   9 H :    0.011721
  10 H :    0.045617
  11 H :    0.093649
  12 H :    0.037309
  13 H :    0.046661
Sum of atomic charges:   -0.0000000

LOEWDIN ATOMIC CHARGES
----------------------
   0 O :   -0.112605
   1 C :    0.054322
   2 C :   -0.027077
   3 N :   -0.101332
   4 C :   -0.007183
   5 C :    0.050027
   6 O :   -0.081856
   7 H :    0.076343
   8 H :    0.003786
   9 H :    0.007010
  10 H :    0.032053
  11 H :    0.047131
  12 H :    0.027311
  13 H :    0.032070

  Mayer bond orders larger than 0.1
B(  0-O ,  1-C ) :   1.1219 B(  0-O ,  7-H ) :   0.9746 B(  1-C ,  2-C ) :   1.0194
B(  1-C ,  8-H ) :   0.9162 B(  1-C ,  9-H ) :   0.9284 B(  2-C ,  3-N ) :   1.0655
B(  2-C ,  4-C ) :  -0.1027 B(  2-C ,  5-C ) :   0.9055 B(  2-C , 10-H ) :   0.8948
B(  3-N ,  4-C ) :   1.0502 B(  3-N , 11-H ) :   0.9312 B(  4-C ,  5-C ) :   0.9499
B(  4-C , 12-H ) :   0.9183 B(  4-C , 13-H ) :   0.9168 B(  5-C ,  6-O ) :   2.2686

FINAL SINGLE POINT ENERGY      -361.087270762445

DIPOLE MOMENT
-------------
                                X             Y             Z
Electronic contribution:     -3.08931      -2.12634      -1.45501
Nuclear contribution   :      3.94378       2.63353       2.48331
                        -----------------------------------------
Total Dipole Moment    :      0.85447       0.50719       1.02830
                        -----------------------------------------
Magnitude (a.u.)       :      1.42995
Magnitude (Debye)      :      3.63464

                             ****ORCA TERMINATED NORMALLY****
TOTAL RUN TIME: 0 days 0 hours 0 minutes 6 seconds 657 msec
