                         Program Version 3.0.3 - RELEASE   -
|  1> ! RI PBE def2-SVP def2-SVP/J NBO PAL2
|  2> % maxcore 2000
|  3> % output
|  4>     # printlevel mini
|  5>     print[ P_Basis ] 0
|  6>     print[ P_SCFInfo ] 1
|  7>     print[ P_SCFIterInfo ] 1
|  8>     print[ P_OrbEn ] 0
|  9>     print[ P_Cartesian ] 0
| 10> end
| 11> *xyz 0 1
| 12>  O        2.0588450000     0.9693870000    -0.8253740000
| 13>  C        1.9619750000    -0.0676610000    -0.2324620000
| 14>  C        3.0879450000    -1.0776710000    -0.0810370000
| 15>  N        2.5643240000    -2.4328840000    -0.0041570000
| 16>  C        3.1128000000    -3.1280180000     1.1593970000
| 17>  C        3.7687500000    -2.0304860000     1.9310500000
| 18>  C        3.7676950000    -0.8953130000     1.2472260000
| 19>  H        1.0235410000    -0.3769550000     0.2769160000
| 20>  H        3.7897690000    -0.9048900000    -0.9104780000
| 21>  H        2.6766120000    -2.9442710000    -0.8644070000
| 22>  H        3.8427160000    -3.9078070000     0.8926860000
| 23>  H        2.3225650000    -3.6218090000     1.7388640000
| 24>  H        4.2003360000    -2.1758490000     2.9132560000
| 25>  H        4.1862060000     0.0516380000     1.5613190000
| 26> *
| 27>
| 28>                          ****END OF INPUT****
 Total Charge           Charge          ....    0
 Multiplicity           Mult            ....    1
 Number of Electrons    NEL             ....   52
 Basis Dimension        Dim             ....  133

MULLIKEN ATOMIC CHARGES
-----------------------
   0 O :   -0.155398
   1 C :    0.146668
   2 C :    0.063551
   3 N :   -0.272182
   4 C :    0.192274
   5 C :   -0.092361
   6 C :   -0.048787
   7 H :   -0.020750
   8 H :    0.019799
   9 H :    0.106268
  10 H :    0.017512
  11 H :    0.025575
  12 H :    0.007004
  13 H :    0.010829
Sum of atomic charges:   -0.0000000

LOEWDIN ATOMIC CHARGES
----------------------
   0 O :   -0.106142
   1 C :    0.084666
   2 C :   -0.026223
   3 N :   -0.090716
   4 C :    0.022054
   5 C :   -0.028013
   6 C :   -0.027938
   7 H :   -0.014778
   8 H :    0.024969
   9 H :    0.059612
  10 H :    0.018240
  11 H :    0.022786
  12 H :    0.029989
  13 H :    0.031494

  Mayer bond orders larger than 0.1
B(  0-O ,  1-C ) :   2.1873 B(  1-C ,  2-C ) :   0.8993 B(  1-C ,  7-H ) :   0.9159
B(  2-C ,  3-N ) :   1.0094 B(  2-C ,  6-C ) :   0.9867 B(  2-C ,  8-H ) :   0.8791
B(  3-N ,  4-C ) :   1.0326 B(  3-N ,  9-H ) :   0.9460 B(  4-C ,  5-C ) :   1.0298
B(  4-C , 10-H ) :   0.9151 B(  4-C , 11-H ) :   0.9218 B(  5-C ,  6-C ) :   1.8573
B(  5-C , 12-H ) :   0.9816 B(  6-C , 13-H ) :   0.9919

FINAL SINGLE POINT ENERGY      -324.035876621612

DIPOLE MOMENT
-------------
                                X             Y             Z
Electronic contribution:     -1.20668       3.90627      -2.09661
Nuclear contribution   :      1.75548      -4.94711       2.48687
                        -----------------------------------------
Total Dipole Moment    :      0.54880      -1.04085       0.39026
                        -----------------------------------------
Magnitude (a.u.)       :      1.23969
Magnitude (Debye)      :      3.15105

                             ****ORCA TERMINATED NORMALLY****
TOTAL RUN TIME: 0 days 0 hours 0 minutes 6 seconds 330 msec
