                         Program Version 3.0.3 - RELEASE   -
|  1> ! RI PBE def2-SVP def2-SVP/J NBO PAL2
|  2> % maxcore 2000
|  3> % output
|  4>     # printlevel mini
|  5>     print[ P_Basis ] 0
|  6>     print[ P_SCFInfo ] 1
|  7>     print[ P_SCFIterInfo ] 1
|  8>     print[ P_OrbEn ] 0
|  9>     print[ P_Cartesian ] 0
| 10> end
| 11> *xyz 0 1
| 12>  O        3.4096020000     0.6375650000    -0.8551420000
| 13>  C        2.4039630000     0.0323490000    -0.0669130000
| 14>  C        2.6418500000     0.4231650000     1.3833700000
| 15>  N        1.6681680000    -0.2319950000     2.2566860000
| 16>  C        1.1221590000     0.7340090000     3.2090220000
| 17>  C        1.5720840000     2.0493560000     2.6598020000
| 18>  C        2.4184640000     1.8788550000     1.6547380000
| 19>  H        3.2480370000     0.4252110000    -1.7762400000
| 20>  H        2.4366400000    -1.0628770000    -0.1478070000
| 21>  H        1.3993300000     0.3639910000    -0.3593500000
| 22>  H        3.6844970000     0.1532010000     1.6217000000
| 23>  H        2.0503460000    -1.0456520000     2.7120990000
| 24>  H        1.4986280000     0.5891500000     4.2342610000
| 25>  H        0.0279130000     0.6642480000     3.2656900000
| 26>  H        1.2362100000     2.9994000000     3.0563790000
| 27>  H        2.9025000000     2.6547450000     1.0770160000
| 28> *
| 29>
| 30>                          ****END OF INPUT****
 Total Charge           Charge          ....    0
 Multiplicity           Mult            ....    1
 Number of Electrons    NEL             ....   54
 Basis Dimension        Dim             ....  143

MULLIKEN ATOMIC CHARGES
-----------------------
   0 O :   -0.280280
   1 C :    0.217897
   2 C :    0.035957
   3 N :   -0.268993
   4 C :    0.181607
   5 C :   -0.104735
   6 C :   -0.033626
   7 H :    0.155750
   8 H :   -0.008056
   9 H :   -0.018393
  10 H :    0.005617
  11 H :    0.095744
  12 H :    0.008012
  13 H :    0.021124
  14 H :   -0.004529
  15 H :   -0.003094
Sum of atomic charges:   -0.0000000

LOEWDIN ATOMIC CHARGES
----------------------
   0 O :   -0.131230
   1 C :    0.051398
   2 C :    0.001053
   3 N :   -0.095333
   4 C :    0.018202
   5 C :   -0.041469
   6 C :   -0.027258
   7 H :    0.071521
   8 H :    0.001416
   9 H :    0.001167
  10 H :    0.013894
  11 H :    0.053530
  12 H :    0.013585
  13 H :    0.019016
  14 H :    0.023660
  15 H :    0.026849

  Mayer bond orders larger than 0.1
B(  0-O ,  1-C ) :   1.0923 B(  0-O ,  7-H ) :   0.9792 B(  1-C ,  2-C ) :   1.0229
B(  1-C ,  8-H ) :   0.9324 B(  1-C ,  9-H ) :   0.9169 B(  2-C ,  3-N ) :   1.0267
B(  2-C ,  6-C ) :   1.0023 B(  2-C , 10-H ) :   0.8923 B(  3-N ,  4-C ) :   1.0461
B(  3-N , 11-H ) :   0.9442 B(  4-C ,  5-C ) :   1.0225 B(  4-C , 12-H ) :   0.9135
B(  4-C , 13-H ) :   0.9242 B(  5-C ,  6-C ) :   1.8607 B(  5-C , 14-H ) :   0.9878
B(  6-C , 15-H ) :   0.9985

FINAL SINGLE POINT ENERGY      -325.231586099389

DIPOLE MOMENT
-------------
                                X             Y             Z
Electronic contribution:      1.18886       0.69357      -1.07541
Nuclear contribution   :     -1.25968      -0.94114       1.06389
                        -----------------------------------------
Total Dipole Moment    :     -0.07082      -0.24757      -0.01152
                        -----------------------------------------
Magnitude (a.u.)       :      0.25776
Magnitude (Debye)      :      0.65516

                             ****ORCA TERMINATED NORMALLY****
TOTAL RUN TIME: 0 days 0 hours 0 minutes 6 seconds 935 msec
