                         Program Version 3.0.3 - RELEASE   -
|  1> ! RI PBE def2-SVP def2-SVP/J NBO PAL2
|  2> % maxcore 2000
|  3> % output
|  4>     # printlevel mini
|  5>     print[ P_Basis ] 0
|  6>     print[ P_SCFInfo ] 1
|  7>     print[ P_SCFIterInfo ] 1
|  8>     print[ P_OrbEn ] 0
|  9>     print[ P_Cartesian ] 0
| 10> end
| 11> *xyz 0 1
| 12>  O        2.0820200000     1.0083460000    -0.3300510000
| 13>  C        2.2354730000    -0.0740960000     0.1715930000
| 14>  C        3.0604860000    -0.2834620000     1.3842540000
| 15>  N        3.2077160000    -1.4455830000     1.8995020000
| 16>  C        4.0743780000    -1.2574020000     3.0642450000
| 17>  C        4.4117580000     0.2580570000     3.1417950000
| 18>  N        3.6873120000     0.7528330000     1.9877750000
| 19>  H        1.7767530000    -0.9965940000    -0.2263410000
| 20>  H        4.9701090000    -1.8746100000     2.9513860000
| 21>  H        3.5577700000    -1.6120300000     3.9604820000
| 22>  H        5.4854320000     0.4519970000     3.0576850000
| 23>  H        4.0562730000     0.7182450000     4.0688830000
| 24>  H        3.6335190000     1.7011010000     1.6653120000
| 25> *
| 26>
| 27>                          ****END OF INPUT****
 Total Charge           Charge          ....    0
 Multiplicity           Mult            ....    1
 Number of Electrons    NEL             ....   52
 Basis Dimension        Dim             ....  128

MULLIKEN ATOMIC CHARGES
-----------------------
   0 O :   -0.149612
   1 C :    0.187387
   2 C :   -0.063093
   3 N :   -0.193868
   4 C :    0.060985
   5 C :    0.125999
   6 N :   -0.180046
   7 H :   -0.013471
   8 H :    0.037052
   9 H :    0.033058
  10 H :    0.024850
  11 H :    0.020290
  12 H :    0.110469
Sum of atomic charges:   -0.0000000

LOEWDIN ATOMIC CHARGES
----------------------
   0 O :   -0.103300
   1 C :    0.087735
   2 C :   -0.049462
   3 N :   -0.133278
   4 C :    0.009050
   5 C :    0.022302
   6 N :   -0.007815
   7 H :    0.002181
   8 H :    0.031331
   9 H :    0.030395
  10 H :    0.019615
  11 H :    0.019002
  12 H :    0.072243

  Mayer bond orders larger than 0.1
B(  0-O ,  1-C ) :   2.1669 B(  1-C ,  2-C ) :   0.9558 B(  1-C ,  7-H ) :   0.9289
B(  2-C ,  3-N ) :   1.7623 B(  2-C ,  6-N ) :   1.2292 B(  3-N ,  4-C ) :   1.0697
B(  3-N ,  6-N ) :   0.1567 B(  4-C ,  5-C ) :   1.0717 B(  4-C ,  8-H ) :   0.9339
B(  4-C ,  9-H ) :   0.9353 B(  5-C ,  6-N ) :   1.0064 B(  5-C , 10-H ) :   0.9423
B(  5-C , 11-H ) :   0.9408 B(  6-N , 12-H ) :   0.9231

FINAL SINGLE POINT ENERGY      -340.085677718241

DIPOLE MOMENT
-------------
                                X             Y             Z
Electronic contribution:     -3.04112       1.19080      -4.59312
Nuclear contribution   :      3.70418      -0.83865       5.42992
                        -----------------------------------------
Total Dipole Moment    :      0.66306       0.35215       0.83680
                        -----------------------------------------
Magnitude (a.u.)       :      1.12423
Magnitude (Debye)      :      2.85756

                             ****ORCA TERMINATED NORMALLY****
TOTAL RUN TIME: 0 days 0 hours 0 minutes 6 seconds 370 msec
