                         Program Version 3.0.3 - RELEASE   -
|  1> ! RI PBE def2-SVP def2-SVP/J NBO PAL2
|  2> % maxcore 2000
|  3> % output
|  4>     # printlevel mini
|  5>     print[ P_Basis ] 0
|  6>     print[ P_SCFInfo ] 1
|  7>     print[ P_SCFIterInfo ] 1
|  8>     print[ P_OrbEn ] 0
|  9>     print[ P_Cartesian ] 0
| 10> end
| 11> *xyz 0 1
| 12>  O        1.2108410000     0.2049110000    -0.2211770000
| 13>  C        2.5412270000    -0.1784340000     0.0762770000
| 14>  C        3.0624890000     0.4936040000     1.3056710000
| 15>  N        3.6959240000    -0.1087870000     2.2339680000
| 16>  C        4.0792100000     0.9277850000     3.1933030000
| 17>  C        3.2235690000     2.1563140000     2.8353370000
| 18>  N        2.9016170000     1.8564550000     1.4457610000
| 19>  H        0.6307870000    -0.2103080000     0.4226820000
| 20>  H        3.1416730000     0.1290720000    -0.7841460000
| 21>  H        2.6495160000    -1.2587300000     0.2021110000
| 22>  H        5.1478150000     1.1431070000     3.0731580000
| 23>  H        3.9292200000     0.5859460000     4.2187750000
| 24>  H        3.7634780000     3.0993530000     2.9327610000
| 25>  H        2.3174270000     2.2087060000     3.4533010000
| 26>  H        2.0806070000     2.2631270000     1.0249080000
| 27> *
| 28>
| 29>                          ****END OF INPUT****
 Total Charge           Charge          ....    0
 Multiplicity           Mult            ....    1
 Number of Electrons    NEL             ....   54
 Basis Dimension        Dim             ....  138

MULLIKEN ATOMIC CHARGES
-----------------------
   0 O :   -0.290907
   1 C :    0.298725
   2 C :   -0.175334
   3 N :   -0.201157
   4 C :    0.075154
   5 C :    0.098936
   6 N :   -0.175481
   7 H :    0.154890
   8 H :    0.026511
   9 H :    0.015411
  10 H :    0.027400
  11 H :    0.018437
  12 H :    0.013016
  13 H :    0.011375
  14 H :    0.103025
Sum of atomic charges:    0.0000000

LOEWDIN ATOMIC CHARGES
----------------------
   0 O :   -0.119816
   1 C :    0.052689
   2 C :   -0.029978
   3 N :   -0.160105
   4 C :    0.004297
   5 C :    0.013940
   6 N :   -0.033568
   7 H :    0.073648
   8 H :    0.035583
   9 H :    0.022429
  10 H :    0.024953
  11 H :    0.022302
  12 H :    0.020235
  13 H :    0.011838
  14 H :    0.061554

  Mayer bond orders larger than 0.1
B(  0-O ,  1-C ) :   1.0409 B(  0-O ,  7-H ) :   0.9858 B(  1-C ,  2-C ) :   1.0123
B(  1-C ,  8-H ) :   0.9086 B(  1-C ,  9-H ) :   0.9240 B(  2-C ,  3-N ) :   1.8638
B(  2-C ,  6-N ) :   1.1653 B(  3-N ,  4-C ) :   1.0539 B(  3-N ,  6-N ) :   0.1173
B(  4-C ,  5-C ) :   1.0807 B(  4-C , 10-H ) :   0.9259 B(  4-C , 11-H ) :   0.9457
B(  5-C ,  6-N ) :   1.0262 B(  5-C , 12-H ) :   0.9391 B(  5-C , 13-H ) :   0.9341
B(  6-N , 14-H ) :   0.9197

FINAL SINGLE POINT ENERGY      -341.282352371952

DIPOLE MOMENT
-------------
                                X             Y             Z
Electronic contribution:     -0.92426      -1.21294      -1.97390
Nuclear contribution   :      0.38868       1.71806       2.25248
                        -----------------------------------------
Total Dipole Moment    :     -0.53558       0.50513       0.27858
                        -----------------------------------------
Magnitude (a.u.)       :      0.78715
Magnitude (Debye)      :      2.00078

                             ****ORCA TERMINATED NORMALLY****
TOTAL RUN TIME: 0 days 0 hours 0 minutes 7 seconds 0 msec
