                         Program Version 3.0.3 - RELEASE   -
|  1> ! RI PBE def2-SVP def2-SVP/J NBO PAL2
|  2> % maxcore 2000
|  3> % output
|  4>     # printlevel mini
|  5>     print[ P_Basis ] 0
|  6>     print[ P_SCFInfo ] 1
|  7>     print[ P_SCFIterInfo ] 1
|  8>     print[ P_OrbEn ] 0
|  9>     print[ P_Cartesian ] 0
| 10> end
| 11> *xyz 0 1
| 12>  O        2.5899180000    -1.0917430000    -0.1510170000
| 13>  C        2.0811970000     0.0019570000    -0.0598530000
| 14>  C        2.7773250000     1.2283190000    -0.4098580000
| 15>  N        2.2922450000     2.4524910000    -0.3379360000
| 16>  C        3.2910890000     3.2618890000    -0.7615130000
| 17>  C        4.4016690000     2.5189120000    -1.0966080000
| 18>  N        4.0556120000     1.2306100000    -0.8664610000
| 19>  H        1.0464570000     0.1512580000     0.2972470000
| 20>  H        3.1765990000     4.3338910000    -0.8093070000
| 21>  H        5.3733480000     2.8022350000    -1.4669930000
| 22>  H        4.6122310000     0.4013600000    -0.9966010000
| 23> *
| 24>
| 25>                          ****END OF INPUT****
 Total Charge           Charge          ....    0
 Multiplicity           Mult            ....    1
 Number of Electrons    NEL             ....   50
 Basis Dimension        Dim             ....  118

MULLIKEN ATOMIC CHARGES
-----------------------
   0 O :   -0.177461
   1 C :    0.160579
   2 C :   -0.061161
   3 N :   -0.100062
   4 C :    0.006602
   5 C :    0.053400
   6 N :   -0.012841
   7 H :   -0.016514
   8 H :    0.008285
   9 H :    0.013236
  10 H :    0.125938
Sum of atomic charges:   -0.0000000

LOEWDIN ATOMIC CHARGES
----------------------
   0 O :   -0.133445
   1 C :    0.067630
   2 C :   -0.072874
   3 N :   -0.081018
   4 C :   -0.039894
   5 C :   -0.016223
   6 N :    0.128612
   7 H :    0.002577
   8 H :    0.023441
   9 H :    0.028747
  10 H :    0.092445

  Mayer bond orders larger than 0.1
B(  0-O ,  1-C ) :   2.1191 B(  1-C ,  2-C ) :   1.0259 B(  1-C ,  7-H ) :   0.9294
B(  2-C ,  3-N ) :   1.5494 B(  2-C ,  6-N ) :   1.2331 B(  3-N ,  4-C ) :   1.4534
B(  4-C ,  5-C ) :   1.4151 B(  4-C ,  8-H ) :   0.9908 B(  5-C ,  6-N ) :   1.2638
B(  5-C ,  9-H ) :   0.9781 B(  6-N , 10-H ) :   0.9163

FINAL SINGLE POINT ENERGY      -338.916113041258

DIPOLE MOMENT
-------------
                                X             Y             Z
Electronic contribution:     -0.66874      -1.79841       0.38528
Nuclear contribution   :      1.78642       2.25958      -0.82476
                        -----------------------------------------
Total Dipole Moment    :      1.11767       0.46118      -0.43948
                        -----------------------------------------
Magnitude (a.u.)       :      1.28648
Magnitude (Debye)      :      3.26997

                             ****ORCA TERMINATED NORMALLY****
TOTAL RUN TIME: 0 days 0 hours 0 minutes 6 seconds 89 msec
