                         Program Version 3.0.3 - RELEASE   -
|  1> ! RI PBE def2-SVP def2-SVP/J NBO PAL2
|  2> % maxcore 2000
|  3> % output
|  4>     # printlevel mini
|  5>     print[ P_Basis ] 0
|  6>     print[ P_SCFInfo ] 1
|  7>     print[ P_SCFIterInfo ] 1
|  8>     print[ P_OrbEn ] 0
|  9>     print[ P_Cartesian ] 0
| 10> end
| 11> *xyz 0 1
| 12>  O        3.3013110000    -1.0348060000    -0.3131720000
| 13>  C        2.2584370000    -0.1104660000    -0.0645440000
| 14>  C        2.7022080000     1.0360260000     0.7771010000
| 15>  N        2.3237210000     2.2842120000     0.6567340000
| 16>  C        2.9553230000     2.9593090000     1.6652900000
| 17>  C        3.7324540000     2.1077030000     2.3965540000
| 18>  N        3.5560200000     0.8797770000     1.8188070000
| 19>  H        3.9532310000    -0.6049800000    -0.8739990000
| 20>  H        1.4796120000    -0.6832940000     0.4475730000
| 21>  H        1.8204530000     0.2925680000    -0.9828650000
| 22>  H        2.8236920000     4.0212260000     1.8042520000
| 23>  H        4.3822830000     2.2609280000     3.2420250000
| 24>  H        3.9996460000     0.0149980000     2.0765430000
| 25> *
| 26>
| 27>                          ****END OF INPUT****
 Total Charge           Charge          ....    0
 Multiplicity           Mult            ....    1
 Number of Electrons    NEL             ....   52
 Basis Dimension        Dim             ....  128

MULLIKEN ATOMIC CHARGES
-----------------------
   0 O :   -0.294132
   1 C :    0.309545
   2 C :   -0.180320
   3 N :   -0.128633
   4 C :   -0.000638
   5 C :    0.033481
   6 N :   -0.032632
   7 H :    0.153257
   8 H :    0.025592
   9 H :    0.013874
  10 H :   -0.007147
  11 H :   -0.002712
  12 H :    0.110465
Sum of atomic charges:   -0.0000000

LOEWDIN ATOMIC CHARGES
----------------------
   0 O :   -0.124122
   1 C :    0.051975
   2 C :   -0.055893
   3 N :   -0.118049
   4 C :   -0.053328
   5 C :   -0.050042
   6 N :    0.100424
   7 H :    0.071902
   8 H :    0.032543
   9 H :    0.023721
  10 H :    0.017616
  11 H :    0.021326
  12 H :    0.081926

  Mayer bond orders larger than 0.1
B(  0-O ,  1-C ) :   1.0438 B(  0-O ,  7-H ) :   0.9851 B(  1-C ,  2-C ) :   1.0257
B(  1-C ,  8-H ) :   0.9098 B(  1-C ,  9-H ) :   0.9185 B(  2-C ,  3-N ) :   1.6378
B(  2-C ,  6-N ) :   1.2492 B(  3-N ,  4-C ) :   1.3872 B(  4-C ,  5-C ) :   1.4932
B(  4-C , 10-H ) :   0.9909 B(  5-C ,  6-N ) :   1.2021 B(  5-C , 11-H ) :   0.9804
B(  6-N , 12-H ) :   0.9249

FINAL SINGLE POINT ENERGY      -340.103230386671

DIPOLE MOMENT
-------------
                                X             Y             Z
Electronic contribution:      0.31183       0.59854       0.37689
Nuclear contribution   :      0.47031      -1.08126       0.02201
                        -----------------------------------------
Total Dipole Moment    :      0.78214      -0.48272       0.39890
                        -----------------------------------------
Magnitude (a.u.)       :      1.00194
Magnitude (Debye)      :      2.54672

                             ****ORCA TERMINATED NORMALLY****
TOTAL RUN TIME: 0 days 0 hours 0 minutes 6 seconds 752 msec
