                         Program Version 3.0.3 - RELEASE   -
|  1> ! RI PBE def2-SVP def2-SVP/J NBO PAL2
|  2> % maxcore 2000
|  3> % output
|  4>     # printlevel mini
|  5>     print[ P_Basis ] 0
|  6>     print[ P_SCFInfo ] 1
|  7>     print[ P_SCFIterInfo ] 1
|  8>     print[ P_OrbEn ] 0
|  9>     print[ P_Cartesian ] 0
| 10> end
| 11> *xyz 0 1
| 12>  O        0.9698190000    -0.3644430000    -0.1034450000
| 13>  C        2.3031640000     0.0988960000    -0.0644210000
| 14>  C        2.8019000000     0.2708130000    -1.4495560000
| 15>  N        3.2102260000     1.3576090000    -2.0118670000
| 16>  C        3.5873920000     0.9716880000    -3.2815830000
| 17>  C        3.3773540000    -0.3535240000    -3.4150910000
| 18>  O        2.8779540000    -0.8164550000    -2.2423090000
| 19>  H        0.7187690000    -0.6338660000     0.7830510000
| 20>  H        2.9529360000    -0.6136170000     0.4620350000
| 21>  H        2.3897790000     1.0749920000     0.4238530000
| 22>  H        3.9757140000     1.6727440000    -4.0026290000
| 23>  H        3.5103030000    -1.0701400000    -4.2071470000
| 24> *
| 25>
| 26>                          ****END OF INPUT****
 Total Charge           Charge          ....    0
 Multiplicity           Mult            ....    1
 Number of Electrons    NEL             ....   52
 Basis Dimension        Dim             ....  123

MULLIKEN ATOMIC CHARGES
-----------------------
   0 O :   -0.271809
   1 C :    0.255543
   2 C :   -0.046822
   3 N :   -0.110087
   4 C :    0.011501
   5 C :    0.102730
   6 O :   -0.151952
   7 H :    0.158463
   8 H :    0.015830
   9 H :    0.011604
  10 H :    0.007768
  11 H :    0.017231
Sum of atomic charges:   -0.0000000

LOEWDIN ATOMIC CHARGES
----------------------
   0 O :   -0.121024
   1 C :    0.049217
   2 C :   -0.001416
   3 N :   -0.094327
   4 C :   -0.047180
   5 C :    0.005199
   6 O :    0.040227
   7 H :    0.072753
   8 H :    0.021103
   9 H :    0.024048
  10 H :    0.025851
  11 H :    0.025550

  Mayer bond orders larger than 0.1
B(  0-O ,  1-C ) :   1.1395 B(  0-O ,  7-H ) :   0.9764 B(  1-C ,  2-C ) :   1.0512
B(  1-C ,  8-H ) :   0.9072 B(  1-C ,  9-H ) :   0.9120 B(  2-C ,  3-N ) :   1.7474
B(  2-C ,  6-O ) :   1.1825 B(  3-N ,  4-C ) :   1.3104 B(  4-C ,  5-C ) :   1.5759
B(  4-C , 10-H ) :   0.9835 B(  5-C ,  6-O ) :   1.1387 B(  5-C , 11-H ) :   0.9862

FINAL SINGLE POINT ENERGY      -359.923718081220

DIPOLE MOMENT
-------------
                                X             Y             Z
Electronic contribution:      0.08286      -0.34831      -1.64608
Nuclear contribution   :      0.13830      -0.19891       1.96972
                        -----------------------------------------
Total Dipole Moment    :      0.22116      -0.54722       0.32364
                        -----------------------------------------
Magnitude (a.u.)       :      0.67313
Magnitude (Debye)      :      1.71097

                             ****ORCA TERMINATED NORMALLY****
TOTAL RUN TIME: 0 days 0 hours 0 minutes 5 seconds 762 msec
