                         Program Version 3.0.3 - RELEASE   -
|  1> ! RI PBE def2-SVP def2-SVP/J NBO PAL2
|  2> % maxcore 2000
|  3> % output
|  4>     # printlevel mini
|  5>     print[ P_Basis ] 0
|  6>     print[ P_SCFInfo ] 1
|  7>     print[ P_SCFIterInfo ] 1
|  8>     print[ P_OrbEn ] 0
|  9>     print[ P_Cartesian ] 0
| 10> end
| 11> *xyz 0 1
| 12>  O        2.5414120000    -1.2161310000     0.2177430000
| 13>  C        2.1998360000    -0.0857160000    -0.0034960000
| 14>  C        2.8484520000     0.7992170000    -0.9753780000
| 15>  N        2.5039310000     2.0221230000    -1.2364090000
| 16>  C        3.3889990000     2.4325470000    -2.1966320000
| 17>  C        4.2385850000     1.4108830000    -2.4684180000
| 18>  O        3.9011600000     0.3634600000    -1.6933010000
| 19>  H        1.3520070000     0.4024270000     0.5118120000
| 20>  H        3.3600500000     3.4213500000    -2.6253620000
| 21>  H        5.0735860000     1.2780400000    -3.1355590000
| 22> *
| 23>
| 24>                          ****END OF INPUT****
 Total Charge           Charge          ....    0
 Multiplicity           Mult            ....    1
 Number of Electrons    NEL             ....   50
 Basis Dimension        Dim             ....  113

MULLIKEN ATOMIC CHARGES
-----------------------
   0 O :   -0.137955
   1 C :    0.148980
   2 C :    0.021145
   3 N :   -0.094682
   4 C :    0.022362
   5 C :    0.119483
   6 O :   -0.127890
   7 H :   -0.004966
   8 H :    0.020391
   9 H :    0.033132
Sum of atomic charges:   -0.0000000

LOEWDIN ATOMIC CHARGES
----------------------
   0 O :   -0.092950
   1 C :    0.065789
   2 C :   -0.037079
   3 N :   -0.065652
   4 C :   -0.035787
   5 C :    0.032252
   6 O :    0.065880
   7 H :    0.003703
   8 H :    0.031266
   9 H :    0.032577

  Mayer bond orders larger than 0.1
B(  0-O ,  1-C ) :   2.1684 B(  1-C ,  2-C ) :   0.9748 B(  1-C ,  7-H ) :   0.9369
B(  2-C ,  3-N ) :   1.6407 B(  2-C ,  6-O ) :   1.1759 B(  3-N ,  4-C ) :   1.3539
B(  4-C ,  5-C ) :   1.5177 B(  4-C ,  8-H ) :   0.9840 B(  5-C ,  6-O ) :   1.1752
B(  5-C ,  9-H ) :   0.9851

FINAL SINGLE POINT ENERGY      -358.731976542470

DIPOLE MOMENT
-------------
                                X             Y             Z
Electronic contribution:      0.01900      -1.80811       0.81360
Nuclear contribution   :      0.47545       2.59625      -1.60653
                        -----------------------------------------
Total Dipole Moment    :      0.49445       0.78814      -0.79293
                        -----------------------------------------
Magnitude (a.u.)       :      1.22245
Magnitude (Debye)      :      3.10722

                             ****ORCA TERMINATED NORMALLY****
TOTAL RUN TIME: 0 days 0 hours 0 minutes 5 seconds 205 msec
