                         Program Version 3.0.3 - RELEASE   -
|  1> ! RI PBE def2-SVP def2-SVP/J NBO PAL2
|  2> % maxcore 2000
|  3> % output
|  4>     # printlevel mini
|  5>     print[ P_Basis ] 0
|  6>     print[ P_SCFInfo ] 1
|  7>     print[ P_SCFIterInfo ] 1
|  8>     print[ P_OrbEn ] 0
|  9>     print[ P_Cartesian ] 0
| 10> end
| 11> *xyz 0 1
| 12>  O        2.2388510000     1.0706380000     0.0625060000
| 13>  C        2.3227430000    -0.1354270000     0.1571360000
| 14>  C        2.8867120000    -0.9819430000    -0.8653140000
| 15>  N        2.9426340000    -2.2639980000    -0.6924560000
| 16>  N        3.4915420000    -2.8257430000    -1.7465180000
| 17>  C        3.8791130000    -1.8930560000    -2.8000690000
| 18>  C        3.4550790000    -0.5445250000    -2.1901260000
| 19>  H        1.9650030000    -0.6803540000     1.0530570000
| 20>  H        3.6018300000    -3.8221440000    -1.7609220000
| 21>  H        3.3537590000    -2.1197860000    -3.7319570000
| 22>  H        4.9537740000    -1.9507800000    -2.9937190000
| 23>  H        2.7078600000    -0.0221960000    -2.7905560000
| 24>  H        4.2918810000     0.1436040000    -2.0560400000
| 25> *
| 26>
| 27>                          ****END OF INPUT****
 Total Charge           Charge          ....    0
 Multiplicity           Mult            ....    1
 Number of Electrons    NEL             ....   52
 Basis Dimension        Dim             ....  128

MULLIKEN ATOMIC CHARGES
-----------------------
   0 O :   -0.192039
   1 C :    0.146054
   2 C :   -0.185140
   3 N :   -0.028242
   4 N :   -0.142630
   5 C :    0.166327
   6 C :   -0.011236
   7 H :   -0.039714
   8 H :    0.126459
   9 H :    0.031384
  10 H :    0.032955
  11 H :    0.047106
  12 H :    0.048715
Sum of atomic charges:   -0.0000000

LOEWDIN ATOMIC CHARGES
----------------------
   0 O :   -0.149753
   1 C :    0.045745
   2 C :   -0.119714
   3 N :   -0.001920
   4 N :    0.045428
   5 C :    0.024668
   6 C :   -0.045907
   7 H :   -0.011186
   8 H :    0.070301
   9 H :    0.026499
  10 H :    0.026753
  11 H :    0.044434
  12 H :    0.044652

  Mayer bond orders larger than 0.1
B(  0-O ,  1-C ) :   2.1044 B(  1-C ,  2-C ) :   1.0819 B(  1-C ,  7-H ) :   0.9247
B(  2-C ,  3-N ) :   1.6762 B(  2-C ,  4-N ) :   0.1367 B(  2-C ,  6-C ) :   1.0382
B(  3-N ,  4-N ) :   1.2082 B(  4-N ,  5-C ) :   0.9469 B(  4-N ,  8-H ) :   0.9471
B(  5-C ,  6-C ) :   1.1096 B(  5-C ,  9-H ) :   0.9372 B(  5-C , 10-H ) :   0.9371
B(  6-C , 11-H ) :   0.9127 B(  6-C , 12-H ) :   0.9124

FINAL SINGLE POINT ENERGY      -340.070800391893

DIPOLE MOMENT
-------------
                                X             Y             Z
Electronic contribution:     -1.75801       0.47150       3.69203
Nuclear contribution   :      2.49557      -1.86710      -4.96329
                        -----------------------------------------
Total Dipole Moment    :      0.73756      -1.39560      -1.27126
                        -----------------------------------------
Magnitude (a.u.)       :      2.02677
Magnitude (Debye)      :      5.15164

                             ****ORCA TERMINATED NORMALLY****
TOTAL RUN TIME: 0 days 0 hours 0 minutes 6 seconds 385 msec
