                         Program Version 3.0.3 - RELEASE   -
|  1> ! RI PBE def2-SVP def2-SVP/J NBO PAL2
|  2> % maxcore 2000
|  3> % output
|  4>     # printlevel mini
|  5>     print[ P_Basis ] 0
|  6>     print[ P_SCFInfo ] 1
|  7>     print[ P_SCFIterInfo ] 1
|  8>     print[ P_OrbEn ] 0
|  9>     print[ P_Cartesian ] 0
| 10> end
| 11> *xyz 0 1
| 12>  O        1.5578230000    -0.6179500000    -0.5555270000
| 13>  C        2.2398360000     0.2349730000    -0.0480700000
| 14>  C        3.0138530000     0.0142130000     1.1826460000
| 15>  N        3.7265150000     0.9600860000     1.6826580000
| 16>  N        4.3612550000     0.4900760000     2.8511360000
| 17>  C        4.0176480000    -0.7318370000     3.0320030000
| 18>  C        3.0955290000    -1.2297430000     1.9851120000
| 19>  H        2.3367570000     1.2523240000    -0.4698450000
| 20>  H        4.3928910000    -1.2938020000     3.8793240000
| 21>  H        2.1244620000    -1.5520360000     2.3766970000
| 22>  H        3.4950410000    -2.0790940000     1.4201570000
| 23> *
| 24>
| 25>                          ****END OF INPUT****
 Total Charge           Charge          ....    0
 Multiplicity           Mult            ....    1
 Number of Electrons    NEL             ....   50
 Basis Dimension        Dim             ....  118

MULLIKEN ATOMIC CHARGES
-----------------------
   0 O :   -0.145187
   1 C :    0.175324
   2 C :   -0.155077
   3 N :   -0.065129
   4 N :   -0.078552
   5 C :    0.012906
   6 C :    0.060824
   7 H :   -0.007432
   8 H :    0.030045
   9 H :    0.086040
  10 H :    0.086239
Sum of atomic charges:   -0.0000000

LOEWDIN ATOMIC CHARGES
----------------------
   0 O :   -0.099221
   1 C :    0.079809
   2 C :   -0.065765
   3 N :   -0.022084
   4 N :   -0.046740
   5 C :    0.022265
   6 C :   -0.062162
   7 H :    0.002910
   8 H :    0.030672
   9 H :    0.080158
  10 H :    0.080158

  Mayer bond orders larger than 0.1
B(  0-O ,  1-C ) :   2.1678 B(  1-C ,  2-C ) :   0.9791 B(  1-C ,  7-H ) :   0.9333
B(  2-C ,  3-N ) :   1.7890 B(  2-C ,  6-C ) :   1.0213 B(  3-N ,  4-N ) :   1.0495
B(  4-N ,  5-C ) :   1.8468 B(  5-C ,  6-C ) :   1.0345 B(  5-C ,  8-H ) :   0.9703
B(  6-C ,  9-H ) :   0.8746 B(  6-C , 10-H ) :   0.8747

FINAL SINGLE POINT ENERGY      -338.846755939795

DIPOLE MOMENT
-------------
                                X             Y             Z
Electronic contribution:      0.03257       1.86115      -0.97791
Nuclear contribution   :     -0.11200      -2.90233       1.43872
                        -----------------------------------------
Total Dipole Moment    :     -0.07943      -1.04118       0.46081
                        -----------------------------------------
Magnitude (a.u.)       :      1.14137
Magnitude (Debye)      :      2.90112

                             ****ORCA TERMINATED NORMALLY****
TOTAL RUN TIME: 0 days 0 hours 0 minutes 6 seconds 56 msec
