                         Program Version 3.0.3 - RELEASE   -
|  1> ! RI PBE def2-SVP def2-SVP/J NBO PAL2
|  2> % maxcore 2000
|  3> % output
|  4>     # printlevel mini
|  5>     print[ P_Basis ] 0
|  6>     print[ P_SCFInfo ] 1
|  7>     print[ P_SCFIterInfo ] 1
|  8>     print[ P_OrbEn ] 0
|  9>     print[ P_Cartesian ] 0
| 10> end
| 11> *xyz 0 1
| 12>  O        1.4620140000     0.8548010000     0.8932350000
| 13>  C        2.3077610000     0.0044270000     0.1366500000
| 14>  C        2.9350460000    -1.0559400000     0.9690680000
| 15>  N        2.7685630000    -2.2974050000     0.7192450000
| 16>  N        3.5403370000    -3.0410130000     1.5840100000
| 17>  C        3.8679590000    -2.2128830000     2.7479240000
| 18>  C        3.8666820000    -0.8190480000     2.1290050000
| 19>  H        0.7422920000     0.3174410000     1.2354970000
| 20>  H        3.0754460000     0.6620180000    -0.2831580000
| 21>  H        1.7755810000    -0.4698360000    -0.6950910000
| 22>  H        3.0971890000    -3.9269410000     1.7776730000
| 23>  H        4.8248580000    -2.5056190000     3.1806700000
| 24>  H        3.0917350000    -2.2857330000     3.5233870000
| 25>  H        4.8594180000    -0.5381180000     1.7542480000
| 26>  H        3.5289080000    -0.0326520000     2.8033290000
| 27> *
| 28>
| 29>                          ****END OF INPUT****
 Total Charge           Charge          ....    0
 Multiplicity           Mult            ....    1
 Number of Electrons    NEL             ....   54
 Basis Dimension        Dim             ....  138

MULLIKEN ATOMIC CHARGES
-----------------------
   0 O :   -0.292494
   1 C :    0.316138
   2 C :   -0.312093
   3 N :   -0.079715
   4 N :   -0.142031
   5 C :    0.115741
   6 C :    0.041122
   7 H :    0.148179
   8 H :    0.004129
   9 H :   -0.000748
  10 H :    0.113473
  11 H :    0.014004
  12 H :    0.018135
  13 H :    0.026710
  14 H :    0.029451
Sum of atomic charges:   -0.0000000

LOEWDIN ATOMIC CHARGES
----------------------
   0 O :   -0.124020
   1 C :    0.053062
   2 C :   -0.093888
   3 N :   -0.048778
   4 N :   -0.020629
   5 C :    0.011976
   6 C :   -0.052517
   7 H :    0.066539
   8 H :    0.026752
   9 H :    0.014862
  10 H :    0.057845
  11 H :    0.023619
  12 H :    0.013490
  13 H :    0.037109
  14 H :    0.034578

  Mayer bond orders larger than 0.1
B(  0-O ,  1-C ) :   1.0447 B(  0-O ,  7-H ) :   0.9846 B(  1-C ,  2-C ) :   1.0662
B(  1-C ,  8-H ) :   0.9069 B(  1-C ,  9-H ) :   0.9164 B(  2-C ,  3-N ) :   1.8677
B(  2-C ,  4-N ) :   0.1072 B(  2-C ,  6-C ) :   1.0177 B(  3-N ,  4-N ) :   1.0800
B(  4-N ,  5-C ) :   0.9888 B(  4-N , 10-H ) :   0.9383 B(  5-C ,  6-C ) :   1.1044
B(  5-C , 11-H ) :   0.9349 B(  5-C , 12-H ) :   0.9356 B(  6-C , 13-H ) :   0.8906
B(  6-C , 14-H ) :   0.9323

FINAL SINGLE POINT ENERGY      -341.256177325407

DIPOLE MOMENT
-------------
                                X             Y             Z
Electronic contribution:     -1.45209      -1.07904      -1.84061
Nuclear contribution   :      1.47970       0.69753       2.58528
                        -----------------------------------------
Total Dipole Moment    :      0.02762      -0.38151       0.74467
                        -----------------------------------------
Magnitude (a.u.)       :      0.83717
Magnitude (Debye)      :      2.12791

                             ****ORCA TERMINATED NORMALLY****
TOTAL RUN TIME: 0 days 0 hours 0 minutes 7 seconds 42 msec
