                         Program Version 3.0.3 - RELEASE   -
|  1> ! RI PBE def2-SVP def2-SVP/J NBO PAL2
|  2> % maxcore 2000
|  3> % output
|  4>     # printlevel mini
|  5>     print[ P_Basis ] 0
|  6>     print[ P_SCFInfo ] 1
|  7>     print[ P_SCFIterInfo ] 1
|  8>     print[ P_OrbEn ] 0
|  9>     print[ P_Cartesian ] 0
| 10> end
| 11> *xyz 0 1
| 12>  O        2.8832560000    -1.2744130000     0.0126290000
| 13>  C        2.5704010000     0.0959160000    -0.1510160000
| 14>  C        2.7232930000     0.8535930000     1.1244630000
| 15>  N        1.7392080000     1.4543140000     1.6831480000
| 16>  N        2.1845590000     2.0525910000     2.8927720000
| 17>  C        3.4265460000     1.7917660000     3.0399390000
| 18>  C        3.9726000000     0.9809760000     1.9243900000
| 19>  H        2.1946700000    -1.6720300000     0.5529560000
| 20>  H        1.5532830000     0.2480390000    -0.5254410000
| 21>  H        3.2702710000     0.4736770000    -0.9013930000
| 22>  H        3.9737290000     2.1484300000     3.9049570000
| 23>  H        4.3748130000     0.0129020000     2.2411260000
| 24>  H        4.7756700000     1.4894480000     1.3788600000
| 25> *
| 26>
| 27>                          ****END OF INPUT****
 Total Charge           Charge          ....    0
 Multiplicity           Mult            ....    1
 Number of Electrons    NEL             ....   52
 Basis Dimension        Dim             ....  128

MULLIKEN ATOMIC CHARGES
-----------------------
   0 O :   -0.290527
   1 C :    0.316832
   2 C :   -0.256386
   3 N :   -0.087543
   4 N :   -0.085843
   5 C :    0.001685
   6 C :    0.057270
   7 H :    0.159141
   8 H :    0.010848
   9 H :    0.016126
  10 H :    0.017540
  11 H :    0.070425
  12 H :    0.070433
Sum of atomic charges:   -0.0000000

LOEWDIN ATOMIC CHARGES
----------------------
   0 O :   -0.116963
   1 C :    0.057515
   2 C :   -0.045053
   3 N :   -0.063052
   4 N :   -0.052215
   5 C :   -0.002972
   6 C :   -0.069305
   7 H :    0.074831
   8 H :    0.020398
   9 H :    0.032077
  10 H :    0.025017
  11 H :    0.069484
  12 H :    0.070238

  Mayer bond orders larger than 0.1
B(  0-O ,  1-C ) :   1.0557 B(  0-O ,  7-H ) :   0.9830 B(  1-C ,  2-C ) :   1.0405
B(  1-C ,  8-H ) :   0.9182 B(  1-C ,  9-H ) :   0.9097 B(  2-C ,  3-N ) :   1.8750
B(  2-C ,  6-C ) :   1.0206 B(  3-N ,  4-N ) :   1.0218 B(  4-N ,  5-C ) :   1.8866
B(  5-C ,  6-C ) :   1.0257 B(  5-C , 10-H ) :   0.9697 B(  6-C , 11-H ) :   0.8819
B(  6-C , 12-H ) :   0.8818

FINAL SINGLE POINT ENERGY      -340.041582811363

DIPOLE MOMENT
-------------
                                X             Y             Z
Electronic contribution:     -2.12681       1.36771       1.80358
Nuclear contribution   :      3.17663      -1.85606      -1.93819
                        -----------------------------------------
Total Dipole Moment    :      1.04983      -0.48835      -0.13461
                        -----------------------------------------
Magnitude (a.u.)       :      1.16565
Magnitude (Debye)      :      2.96285

                             ****ORCA TERMINATED NORMALLY****
TOTAL RUN TIME: 0 days 0 hours 0 minutes 5 seconds 694 msec
