                         Program Version 3.0.3 - RELEASE   -
|  1> ! RI PBE def2-SVP def2-SVP/J NBO PAL2
|  2> % maxcore 2000
|  3> % output
|  4>     # printlevel mini
|  5>     print[ P_Basis ] 0
|  6>     print[ P_SCFInfo ] 1
|  7>     print[ P_SCFIterInfo ] 1
|  8>     print[ P_OrbEn ] 0
|  9>     print[ P_Cartesian ] 0
| 10> end
| 11> *xyz 0 1
| 12>  O        1.2201640000    -0.0397050000    -0.3403840000
| 13>  C        2.3000230000    -0.0620300000     0.1967720000
| 14>  C        2.9670900000     1.1424890000     0.6853340000
| 15>  N        4.1127210000     1.0337200000     1.2444820000
| 16>  O        4.5734360000     2.2377100000     1.6298360000
| 17>  C        3.6150620000     3.2755940000     1.2830000000
| 18>  C        2.4573860000     2.5465080000     0.6111490000
| 19>  H        2.8643870000    -0.9991830000     0.3585570000
| 20>  H        4.1264420000     3.9818930000     0.6278040000
| 21>  H        3.3360740000     3.7803720000     2.2087310000
| 22>  H        2.2880520000     2.8504330000    -0.4235660000
| 23>  H        1.5075630000     2.6495100000     1.1392960000
| 24> *
| 25>
| 26>                          ****END OF INPUT****
 Total Charge           Charge          ....    0
 Multiplicity           Mult            ....    1
 Number of Electrons    NEL             ....   52
 Basis Dimension        Dim             ....  123

MULLIKEN ATOMIC CHARGES
-----------------------
   0 O :   -0.163462
   1 C :    0.164983
   2 C :   -0.200802
   3 N :    0.060081
   4 O :   -0.244458
   5 C :    0.178832
   6 C :    0.020184
   7 H :   -0.015400
   8 H :    0.048395
   9 H :    0.046592
  10 H :    0.053199
  11 H :    0.051856
Sum of atomic charges:   -0.0000000

LOEWDIN ATOMIC CHARGES
----------------------
   0 O :   -0.116217
   1 C :    0.068206
   2 C :   -0.107213
   3 N :    0.037635
   4 O :   -0.056176
   5 C :    0.069421
   6 C :   -0.052252
   7 H :   -0.001534
   8 H :    0.029849
   9 H :    0.029871
  10 H :    0.049320
  11 H :    0.049089

  Mayer bond orders larger than 0.1
B(  0-O ,  1-C ) :   2.1360 B(  1-C ,  2-C ) :   1.0161 B(  1-C ,  7-H ) :   0.9360
B(  2-C ,  3-N ) :   1.7688 B(  2-C ,  4-O ) :   0.1198 B(  2-C ,  6-C ) :   1.0143
B(  3-N ,  4-O ) :   1.0478 B(  4-O ,  5-C ) :   0.9127 B(  5-C ,  6-C ) :   1.1143
B(  5-C ,  8-H ) :   0.9468 B(  5-C ,  9-H ) :   0.9467 B(  6-C , 10-H ) :   0.9130
B(  6-C , 11-H ) :   0.9126

FINAL SINGLE POINT ENERGY      -359.884166602506

DIPOLE MOMENT
-------------
                                X             Y             Z
Electronic contribution:      0.99523      -3.52685       0.04764
Nuclear contribution   :     -0.98550       4.63158       0.10125
                        -----------------------------------------
Total Dipole Moment    :      0.00973       1.10473       0.14889
                        -----------------------------------------
Magnitude (a.u.)       :      1.11476
Magnitude (Debye)      :      2.83350

                             ****ORCA TERMINATED NORMALLY****
TOTAL RUN TIME: 0 days 0 hours 0 minutes 6 seconds 40 msec
