                         Program Version 3.0.3 - RELEASE   -
|  1> ! RI PBE def2-SVP def2-SVP/J NBO PAL2
|  2> % maxcore 2000
|  3> % output
|  4>     # printlevel mini
|  5>     print[ P_Basis ] 0
|  6>     print[ P_SCFInfo ] 1
|  7>     print[ P_SCFIterInfo ] 1
|  8>     print[ P_OrbEn ] 0
|  9>     print[ P_Cartesian ] 0
| 10> end
| 11> *xyz 0 1
| 12>  O        0.8884850000     0.1462490000    -0.1807420000
| 13>  C        2.2791980000    -0.0963330000    -0.1928250000
| 14>  C        2.8741310000     0.3620600000     1.1142190000
| 15>  O        4.2508140000     0.0867150000     1.0202850000
| 16>  C        2.5622910000     1.7848730000     1.6187820000
| 17>  N        2.4636940000     1.2327500000     2.9828500000
| 18>  C        2.2374590000    -0.1172640000     2.4337360000
| 19>  H        0.5216690000    -0.1486360000    -1.0161910000
| 20>  H        2.7781040000     0.4481250000    -1.0055550000
| 21>  H        2.5028060000    -1.1645210000    -0.3146790000
| 22>  H        4.6577110000     0.3704860000     1.8447590000
| 23>  H        1.6169340000     2.1568840000     1.2093360000
| 24>  H        3.3512180000     2.5287680000     1.4737330000
| 25>  H        1.7132430000     1.6040100000     3.5502650000
| 26>  H        1.1833930000    -0.3818280000     2.2970300000
| 27>  H        2.7614370000    -0.9248600000     2.9534080000
| 28> *
| 29>
| 30>                          ****END OF INPUT****
 Total Charge           Charge          ....    0
 Multiplicity           Mult            ....    1
 Number of Electrons    NEL             ....   56
 Basis Dimension        Dim             ....  143

MULLIKEN ATOMIC CHARGES
-----------------------
   0 O :   -0.269822
   1 C :    0.242207
   2 C :   -0.285489
   3 O :   -0.238183
   4 C :    0.214356
   5 N :   -0.288387
   6 C :    0.214677
   7 H :    0.159814
   8 H :    0.000305
   9 H :    0.001185
  10 H :    0.161207
  11 H :   -0.001174
  12 H :   -0.001050
  13 H :    0.094142
  14 H :    0.000684
  15 H :   -0.004471
Sum of atomic charges:   -0.0000000

LOEWDIN ATOMIC CHARGES
----------------------
   0 O :   -0.121398
   1 C :    0.053461
   2 C :    0.003483
   3 O :   -0.094389
   4 C :    0.015821
   5 N :   -0.119791
   6 C :    0.015748
   7 H :    0.074640
   8 H :    0.009764
   9 H :    0.009969
  10 H :    0.074264
  11 H :    0.009033
  12 H :    0.006593
  13 H :    0.047308
  14 H :    0.009395
  15 H :    0.006098

  Mayer bond orders larger than 0.1
B(  0-O ,  1-C ) :   1.0908 B(  0-O ,  7-H ) :   0.9762 B(  1-C ,  2-C ) :   1.0163
B(  1-C ,  8-H ) :   0.9188 B(  1-C ,  9-H ) :   0.9188 B(  2-C ,  3-O ) :   1.0911
B(  2-C ,  4-C ) :   1.0105 B(  2-C ,  6-C ) :   1.0131 B(  3-O , 10-H ) :   0.9701
B(  4-C ,  5-N ) :   1.0436 B(  4-C , 11-H ) :   0.9130 B(  4-C , 12-H ) :   0.9214
B(  5-N ,  6-C ) :   1.0448 B(  5-N , 13-H ) :   0.9418 B(  6-C , 14-H ) :   0.9123
B(  6-C , 15-H ) :   0.9201

FINAL SINGLE POINT ENERGY      -362.283886336054

DIPOLE MOMENT
-------------
                                X             Y             Z
Electronic contribution:      0.82879      -0.25298      -0.25891
Nuclear contribution   :     -1.30218       0.21374      -0.02124
                        -----------------------------------------
Total Dipole Moment    :     -0.47340      -0.03924      -0.28015
                        -----------------------------------------
Magnitude (a.u.)       :      0.55148
Magnitude (Debye)      :      1.40175

                             ****ORCA TERMINATED NORMALLY****
TOTAL RUN TIME: 0 days 0 hours 0 minutes 7 seconds 302 msec
