                         Program Version 3.0.3 - RELEASE   -
|  1> ! RI PBE def2-SVP def2-SVP/J NBO PAL2
|  2> % maxcore 2000
|  3> % output
|  4>     # printlevel mini
|  5>     print[ P_Basis ] 0
|  6>     print[ P_SCFInfo ] 1
|  7>     print[ P_SCFIterInfo ] 1
|  8>     print[ P_OrbEn ] 0
|  9>     print[ P_Cartesian ] 0
| 10> end
| 11> *xyz 0 1
| 12>  O        2.7000320000     0.9832340000    -0.8880170000
| 13>  C        2.3095310000    -0.3772510000    -0.8793820000
| 14>  C        3.1668340000    -1.1360300000     0.1086510000
| 15>  C        4.6291640000    -1.2627220000    -0.2870110000
| 16>  C        5.5284240000    -0.0536700000     0.0454570000
| 17>  C        6.0138980000    -0.8677830000     1.2536240000
| 18>  N        5.4431190000    -2.0766150000     0.6364400000
| 19>  H        2.1731910000     1.4486940000    -1.5410030000
| 20>  H        2.4266670000    -0.8218590000    -1.8787150000
| 21>  H        1.2527100000    -0.4743470000    -0.5950140000
| 22>  H        2.7473080000    -2.1463130000     0.1969150000
| 23>  H        3.0807260000    -0.6659700000     1.0953300000
| 24>  H        4.6852620000    -1.6177090000    -1.3241200000
| 25>  H        5.0190970000     0.8876850000     0.2372390000
| 26>  H        6.3099110000     0.1005880000    -0.6985410000
| 27>  H        5.5296200000    -0.5632550000     2.1899370000
| 28>  H        7.0929480000    -0.9169360000     1.4238400000
| 29>  H        4.9171480000    -2.6809420000     1.2563600000
| 30> *
| 31>
| 32>                          ****END OF INPUT****
 Total Charge           Charge          ....    0
 Multiplicity           Mult            ....    1
 Number of Electrons    NEL             ....   56
 Basis Dimension        Dim             ....  153

MULLIKEN ATOMIC CHARGES
-----------------------
   0 O :   -0.277543
   1 C :    0.156609
   2 C :    0.043904
   3 C :   -0.077992
   4 C :    0.003830
   5 C :    0.111808
   6 N :   -0.230985
   7 H :    0.156098
   8 H :   -0.006553
   9 H :   -0.003306
  10 H :    0.009129
  11 H :   -0.003906
  12 H :   -0.008364
  13 H :    0.024269
  14 H :    0.015779
  15 H :   -0.002161
  16 H :    0.006565
  17 H :    0.082818
Sum of atomic charges:    0.0000000

LOEWDIN ATOMIC CHARGES
----------------------
   0 O :   -0.126542
   1 C :    0.058787
   2 C :   -0.064174
   3 C :    0.016046
   4 C :   -0.037990
   5 C :    0.024241
   6 N :   -0.107588
   7 H :    0.071489
   8 H :    0.003348
   9 H :    0.004105
  10 H :    0.029549
  11 H :    0.025144
  12 H :    0.006486
  13 H :    0.020466
  14 H :    0.027378
  15 H :    0.001831
  16 H :    0.008793
  17 H :    0.038630

  Mayer bond orders larger than 0.1
B(  0-O ,  1-C ) :   1.0915 B(  0-O ,  7-H ) :   0.9794 B(  1-C ,  2-C ) :   1.0914
B(  1-C ,  8-H ) :   0.9269 B(  1-C ,  9-H ) :   0.9289 B(  2-C ,  3-C ) :   1.0392
B(  2-C , 10-H ) :   0.9142 B(  2-C , 11-H ) :   0.9079 B(  3-C ,  4-C ) :   1.0840
B(  3-C ,  6-N ) :   1.0780 B(  3-C , 12-H ) :   0.9160 B(  4-C ,  5-C ) :   1.1087
B(  4-C , 13-H ) :   0.9358 B(  4-C , 14-H ) :   0.9150 B(  5-C ,  6-N ) :   1.0586
B(  5-C , 15-H ) :   0.9321 B(  5-C , 16-H ) :   0.9347 B(  6-N , 17-H ) :   0.9492

FINAL SINGLE POINT ENERGY      -326.421207379945

DIPOLE MOMENT
-------------
                                X             Y             Z
Electronic contribution:      0.12334       0.46302      -0.71771
Nuclear contribution   :     -0.94382      -0.31358       0.53762
                        -----------------------------------------
Total Dipole Moment    :     -0.82048       0.14944      -0.18009
                        -----------------------------------------
Magnitude (a.u.)       :      0.85320
Magnitude (Debye)      :      2.16866

                             ****ORCA TERMINATED NORMALLY****
TOTAL RUN TIME: 0 days 0 hours 0 minutes 7 seconds 671 msec
