                         Program Version 3.0.3 - RELEASE   -
|  1> ! RI PBE def2-SVP def2-SVP/J NBO PAL2
|  2> % maxcore 2000
|  3> % output
|  4>     # printlevel mini
|  5>     print[ P_Basis ] 0
|  6>     print[ P_SCFInfo ] 1
|  7>     print[ P_SCFIterInfo ] 1
|  8>     print[ P_OrbEn ] 0
|  9>     print[ P_Cartesian ] 0
| 10> end
| 11> *xyz 0 1
| 12>  O        2.5397300000     3.0155870000    -0.7944100000
| 13>  C        2.1758310000     1.8833520000    -0.6306980000
| 14>  C        3.0835070000     0.6905150000    -0.5866630000
| 15>  C        4.5532320000     1.0054400000    -0.7822360000
| 16>  C        5.2478570000     1.6140190000     0.4514940000
| 17>  C        5.8198750000     0.2099340000     0.7035960000
| 18>  N        5.4539090000    -0.1574310000    -0.6741700000
| 19>  H        1.0948240000     1.6536970000    -0.4990650000
| 20>  H        2.7266910000    -0.0091830000    -1.3567280000
| 21>  H        2.9046480000     0.1783810000     0.3697840000
| 22>  H        4.6779140000     1.5642190000    -1.7138160000
| 23>  H        4.6007240000     2.0402380000     1.2170020000
| 24>  H        6.0098790000     2.3438650000     0.1824350000
| 25>  H        5.2736500000    -0.3363640000     1.4831720000
| 26>  H        6.8890500000     0.1366470000     0.9183200000
| 27>  H        5.0214690000    -1.0650940000    -0.7939180000
| 28> *
| 29>
| 30>                          ****END OF INPUT****
 Total Charge           Charge          ....    0
 Multiplicity           Mult            ....    1
 Number of Electrons    NEL             ....   54
 Basis Dimension        Dim             ....  143

MULLIKEN ATOMIC CHARGES
-----------------------
   0 O :   -0.156740
   1 C :    0.082886
   2 C :    0.051308
   3 C :   -0.061562
   4 C :   -0.008386
   5 C :    0.115202
   6 N :   -0.233747
   7 H :   -0.010126
   8 H :    0.040543
   9 H :    0.020397
  10 H :    0.012562
  11 H :    0.018127
  12 H :    0.030474
  13 H :    0.001360
  14 H :    0.011942
  15 H :    0.085760
Sum of atomic charges:    0.0000000

LOEWDIN ATOMIC CHARGES
----------------------
   0 O :   -0.105643
   1 C :    0.094226
   2 C :   -0.097212
   3 C :    0.020622
   4 C :   -0.033501
   5 C :    0.025853
   6 N :   -0.105515
   7 H :   -0.012401
   8 H :    0.047087
   9 H :    0.043463
  10 H :    0.014731
  11 H :    0.020229
  12 H :    0.033553
  13 H :    0.002159
  14 H :    0.012045
  15 H :    0.040303

  Mayer bond orders larger than 0.1
B(  0-O ,  1-C ) :   2.1885 B(  1-C ,  2-C ) :   0.9593 B(  1-C ,  7-H ) :   0.9247
B(  2-C ,  3-C ) :   1.0183 B(  2-C ,  8-H ) :   0.8960 B(  2-C ,  9-H ) :   0.8912
B(  3-C ,  4-C ) :   1.0818 B(  3-C ,  6-N ) :   1.0734 B(  3-C , 10-H ) :   0.9200
B(  4-C ,  5-C ) :   1.1058 B(  4-C , 11-H ) :   0.9468 B(  4-C , 12-H ) :   0.9167
B(  5-C ,  6-N ) :   1.0520 B(  5-C , 13-H ) :   0.9323 B(  5-C , 14-H ) :   0.9344
B(  6-N , 15-H ) :   0.9484

FINAL SINGLE POINT ENERGY      -325.226226476556

DIPOLE MOMENT
-------------
                                X             Y             Z
Electronic contribution:     -2.47099       2.96551      -2.20058
Nuclear contribution   :      2.06542      -3.88400       2.57766
                        -----------------------------------------
Total Dipole Moment    :     -0.40557      -0.91850       0.37708
                        -----------------------------------------
Magnitude (a.u.)       :      1.07253
Magnitude (Debye)      :      2.72614

                             ****ORCA TERMINATED NORMALLY****
TOTAL RUN TIME: 0 days 0 hours 0 minutes 6 seconds 977 msec
