                         Program Version 3.0.3 - RELEASE   -
|  1> ! RI PBE def2-SVP def2-SVP/J NBO PAL2
|  2> % maxcore 2000
|  3> % output
|  4>     # printlevel mini
|  5>     print[ P_Basis ] 0
|  6>     print[ P_SCFInfo ] 1
|  7>     print[ P_SCFIterInfo ] 1
|  8>     print[ P_OrbEn ] 0
|  9>     print[ P_Cartesian ] 0
| 10> end
| 11> *xyz 0 1
| 12>  O        2.9706230000    -1.9311530000    -1.4217840000
| 13>  C        2.4266190000    -0.6779470000    -1.7920710000
| 14>  C        3.1373380000     0.4082030000    -1.0166000000
| 15>  C        4.6077800000     0.5332770000    -1.3401600000
| 16>  C        5.4509250000     1.5731680000    -0.5817660000
| 17>  N        6.5625730000     0.6104850000    -0.5597790000
| 18>  C        5.6167790000    -0.4943530000    -0.7967460000
| 19>  H        2.5525290000    -2.6154810000    -1.9483750000
| 20>  H        1.3502400000    -0.6420930000    -1.5740150000
| 21>  H        2.5541370000    -0.5019440000    -2.8703560000
| 22>  H        3.0053700000     0.2216970000     0.0553090000
| 23>  H        2.6363360000     1.3588300000    -1.2356680000
| 24>  H        4.7475010000     0.6574840000    -2.4185330000
| 25>  H        5.0196390000     1.7838090000     0.4083050000
| 26>  H        5.6693700000     2.5223570000    -1.0799200000
| 27>  H        7.0820680000     0.5638510000     0.3072510000
| 28>  H        5.2407600000    -0.9710470000     0.1178030000
| 29>  H        5.9714930000    -1.2719230000    -1.4764830000
| 30> *
| 31>
| 32>                          ****END OF INPUT****
 Total Charge           Charge          ....    0
 Multiplicity           Mult            ....    1
 Number of Electrons    NEL             ....   56
 Basis Dimension        Dim             ....  153

MULLIKEN ATOMIC CHARGES
-----------------------
   0 O :   -0.277842
   1 C :    0.149098
   2 C :    0.052200
   3 C :   -0.278823
   4 C :    0.189987
   5 N :   -0.279341
   6 C :    0.194133
   7 H :    0.155153
   8 H :    0.000754
   9 H :   -0.005394
  10 H :    0.005882
  11 H :    0.008787
  12 H :    0.015466
  13 H :   -0.018884
  14 H :    0.004416
  15 H :    0.089825
  16 H :   -0.011164
  17 H :    0.005747
Sum of atomic charges:   -0.0000000

LOEWDIN ATOMIC CHARGES
----------------------
   0 O :   -0.126459
   1 C :    0.056872
   2 C :   -0.053687
   3 C :   -0.043914
   4 C :    0.029359
   5 N :   -0.118200
   6 C :    0.029930
   7 H :    0.071235
   8 H :    0.004234
   9 H :    0.003458
  10 H :    0.024774
  11 H :    0.031558
  12 H :    0.027643
  13 H :    0.000516
  14 H :    0.007072
  15 H :    0.043537
  16 H :    0.003679
  17 H :    0.008392

  Mayer bond orders larger than 0.1
B(  0-O ,  1-C ) :   1.0907 B(  0-O ,  7-H ) :   0.9796 B(  1-C ,  2-C ) :   1.0967
B(  1-C ,  8-H ) :   0.9323 B(  1-C ,  9-H ) :   0.9268 B(  2-C ,  3-C ) :   1.0629
B(  2-C , 10-H ) :   0.9107 B(  2-C , 11-H ) :   0.9181 B(  3-C ,  4-C ) :   1.0628
B(  3-C ,  6-C ) :   1.0670 B(  3-C , 12-H ) :   0.9003 B(  4-C ,  5-N ) :   1.0522
B(  4-C , 13-H ) :   0.9189 B(  4-C , 14-H ) :   0.9343 B(  5-N ,  6-C ) :   1.0395
B(  5-N , 15-H ) :   0.9427 B(  6-C , 16-H ) :   0.9218 B(  6-C , 17-H ) :   0.9362

FINAL SINGLE POINT ENERGY      -326.420358646142

DIPOLE MOMENT
-------------
                                X             Y             Z
Electronic contribution:      1.24542      -1.67548      -0.18641
Nuclear contribution   :     -1.98092       1.53419       0.10633
                        -----------------------------------------
Total Dipole Moment    :     -0.73549      -0.14130      -0.08008
                        -----------------------------------------
Magnitude (a.u.)       :      0.75321
Magnitude (Debye)      :      1.91452

                             ****ORCA TERMINATED NORMALLY****
TOTAL RUN TIME: 0 days 0 hours 0 minutes 7 seconds 658 msec
