                         Program Version 3.0.3 - RELEASE   -
|  1> ! RI PBE def2-SVP def2-SVP/J NBO PAL2
|  2> % maxcore 2000
|  3> % output
|  4>     # printlevel mini
|  5>     print[ P_Basis ] 0
|  6>     print[ P_SCFInfo ] 1
|  7>     print[ P_SCFIterInfo ] 1
|  8>     print[ P_OrbEn ] 0
|  9>     print[ P_Cartesian ] 0
| 10> end
| 11> *xyz 0 1
| 12>  O        2.8009210000     2.0233010000    -1.8854060000
| 13>  C        2.2299640000     1.0196850000    -1.5571070000
| 14>  C        2.8967580000    -0.2019010000    -0.9982200000
| 15>  C        4.3917970000    -0.0922730000    -0.8589720000
| 16>  C        4.9873980000     0.8153420000     0.2313850000
| 17>  N        6.0078720000    -0.2157740000     0.4801290000
| 18>  C        5.1591270000    -1.2293900000    -0.1621620000
| 19>  H        1.1242800000     0.9434700000    -1.6562680000
| 20>  H        2.6134960000    -1.0434320000    -1.6468530000
| 21>  H        2.4155720000    -0.4189720000    -0.0339690000
| 22>  H        4.8434030000     0.1433980000    -1.8242280000
| 23>  H        4.2812030000     0.9578080000     1.0628610000
| 24>  H        5.3738430000     1.7888600000    -0.0751100000
| 25>  H        6.2401700000    -0.3846280000     1.4500190000
| 26>  H        4.5108770000    -1.7812330000     0.5349390000
| 27>  H        5.6925180000    -1.9486490000    -0.7899400000
| 28> *
| 29>
| 30>                          ****END OF INPUT****
 Total Charge           Charge          ....    0
 Multiplicity           Mult            ....    1
 Number of Electrons    NEL             ....   54
 Basis Dimension        Dim             ....  143

MULLIKEN ATOMIC CHARGES
-----------------------
   0 O :   -0.155302
   1 C :    0.072191
   2 C :    0.072852
   3 C :   -0.261650
   4 C :    0.188842
   5 N :   -0.277857
   6 C :    0.181013
   7 H :   -0.005135
   8 H :    0.038666
   9 H :    0.022697
  10 H :    0.027996
  11 H :   -0.014921
  12 H :    0.019784
  13 H :    0.092396
  14 H :   -0.014167
  15 H :    0.012594
Sum of atomic charges:   -0.0000000

LOEWDIN ATOMIC CHARGES
----------------------
   0 O :   -0.106009
   1 C :    0.092133
   2 C :   -0.085079
   3 C :   -0.040453
   4 C :    0.034998
   5 N :   -0.113294
   6 C :    0.030075
   7 H :   -0.011172
   8 H :    0.049448
   9 H :    0.042129
  10 H :    0.034431
  11 H :    0.001006
  12 H :    0.014611
  13 H :    0.045625
  14 H :    0.001041
  15 H :    0.010511

  Mayer bond orders larger than 0.1
B(  0-O ,  1-C ) :   2.1921 B(  1-C ,  2-C ) :   0.9671 B(  1-C ,  7-H ) :   0.9281
B(  2-C ,  3-C ) :   1.0392 B(  2-C ,  8-H ) :   0.8982 B(  2-C ,  9-H ) :   0.8882
B(  3-C ,  4-C ) :   1.0682 B(  3-C ,  6-C ) :   1.0648 B(  3-C , 10-H ) :   0.9001
B(  4-C ,  5-N ) :   1.0433 B(  4-C , 11-H ) :   0.9239 B(  4-C , 12-H ) :   0.9365
B(  5-N ,  6-C ) :   1.0521 B(  5-N , 13-H ) :   0.9420 B(  6-C , 14-H ) :   0.9189
B(  6-C , 15-H ) :   0.9340

FINAL SINGLE POINT ENERGY      -325.225937854892

DIPOLE MOMENT
-------------
                                X             Y             Z
Electronic contribution:     -1.06987       3.40677      -2.35169
Nuclear contribution   :      0.50688      -4.28197       2.86827
                        -----------------------------------------
Total Dipole Moment    :     -0.56298      -0.87520       0.51658
                        -----------------------------------------
Magnitude (a.u.)       :      1.16180
Magnitude (Debye)      :      2.95306

                             ****ORCA TERMINATED NORMALLY****
TOTAL RUN TIME: 0 days 0 hours 0 minutes 7 seconds 443 msec
