                         Program Version 3.0.3 - RELEASE   -
|  1> ! RI PBE def2-SVP def2-SVP/J NBO PAL2
|  2> % maxcore 2000
|  3> % output
|  4>     # printlevel mini
|  5>     print[ P_Basis ] 0
|  6>     print[ P_SCFInfo ] 1
|  7>     print[ P_SCFIterInfo ] 1
|  8>     print[ P_OrbEn ] 0
|  9>     print[ P_Cartesian ] 0
| 10> end
| 11> *xyz 0 1
| 12>  O        1.8586480000    -3.5247070000     1.6211490000
| 13>  C        2.9361790000    -3.2771590000     0.7390390000
| 14>  C        2.5154250000    -2.1807980000    -0.2135550000
| 15>  C        3.6142680000    -1.7413510000    -1.1737920000
| 16>  C        4.0844790000    -2.8216210000    -2.1086240000
| 17>  C        5.4103930000    -2.7384380000    -2.7460410000
| 18>  N        5.1466300000    -3.7472110000    -1.7204180000
| 19>  H        2.0768930000    -4.2839980000     2.1655270000
| 20>  H        3.2023480000    -4.1827860000     0.1793930000
| 21>  H        3.8297140000    -2.9563820000     1.2978250000
| 22>  H        2.1802950000    -1.3233380000     0.3780360000
| 23>  H        1.6444140000    -2.5275440000    -0.7795330000
| 24>  H        4.4768840000    -1.3589620000    -0.6121270000
| 25>  H        3.2418770000    -0.8998350000    -1.7682020000
| 26>  H        3.2900200000    -3.3091680000    -2.6706230000
| 27>  H        6.0346930000    -1.8881430000    -2.4868700000
| 28>  H        5.5655710000    -3.1286220000    -3.7459090000
| 29>  H        5.5554280000    -3.4515580000    -0.8392760000
| 30> *
| 31>
| 32>                          ****END OF INPUT****
 Total Charge           Charge          ....    0
 Multiplicity           Mult            ....    1
 Number of Electrons    NEL             ....   56
 Basis Dimension        Dim             ....  153

MULLIKEN ATOMIC CHARGES
-----------------------
   0 O :   -0.277678
   1 C :    0.124345
   2 C :   -0.009592
   3 C :    0.076610
   4 C :   -0.139148
   5 C :    0.043550
   6 N :   -0.194721
   7 H :    0.153500
   8 H :    0.018363
   9 H :   -0.014795
  10 H :    0.015615
  11 H :    0.016125
  12 H :   -0.017753
  13 H :    0.021083
  14 H :    0.022317
  15 H :    0.026493
  16 H :    0.033597
  17 H :    0.102086
Sum of atomic charges:    0.0000000

LOEWDIN ATOMIC CHARGES
----------------------
   0 O :   -0.129085
   1 C :    0.051723
   2 C :   -0.049866
   3 C :   -0.044055
   4 C :   -0.011700
   5 C :   -0.000410
   6 N :   -0.107967
   7 H :    0.070244
   8 H :    0.008458
   9 H :   -0.002079
  10 H :    0.028574
  11 H :    0.027465
  12 H :    0.020827
  13 H :    0.034828
  14 H :    0.021721
  15 H :    0.014375
  16 H :    0.020886
  17 H :    0.046062

  Mayer bond orders larger than 0.1
B(  0-O ,  1-C ) :   1.0945 B(  0-O ,  7-H ) :   0.9803 B(  1-C ,  2-C ) :   1.0860
B(  1-C ,  8-H ) :   0.9328 B(  1-C ,  9-H ) :   0.9287 B(  2-C ,  3-C ) :   1.0844
B(  2-C , 10-H ) :   0.9268 B(  2-C , 11-H ) :   0.9286 B(  3-C ,  4-C ) :   1.0543
B(  3-C , 12-H ) :   0.9035 B(  3-C , 13-H ) :   0.9186 B(  4-C ,  5-C ) :   1.0476
B(  4-C ,  6-N ) :   0.9736 B(  4-C , 14-H ) :   0.9368 B(  5-C ,  6-N ) :   1.0071
B(  5-C , 15-H ) :   0.9408 B(  5-C , 16-H ) :   0.9391 B(  6-N , 17-H ) :   0.9420

FINAL SINGLE POINT ENERGY      -326.417306998874

DIPOLE MOMENT
-------------
                                X             Y             Z
Electronic contribution:     -0.80326      -1.97984       1.01250
Nuclear contribution   :      1.17882       2.24641      -0.83404
                        -----------------------------------------
Total Dipole Moment    :      0.37556       0.26658       0.17845
                        -----------------------------------------
Magnitude (a.u.)       :      0.49391
Magnitude (Debye)      :      1.25543

                             ****ORCA TERMINATED NORMALLY****
TOTAL RUN TIME: 0 days 0 hours 0 minutes 7 seconds 864 msec
