                         Program Version 3.0.3 - RELEASE   -
|  1> ! RI PBE def2-SVP def2-SVP/J NBO PAL2
|  2> % maxcore 2000
|  3> % output
|  4>     # printlevel mini
|  5>     print[ P_Basis ] 0
|  6>     print[ P_SCFInfo ] 1
|  7>     print[ P_SCFIterInfo ] 1
|  8>     print[ P_OrbEn ] 0
|  9>     print[ P_Cartesian ] 0
| 10> end
| 11> *xyz 0 1
| 12>  O        2.4953270000    -0.7594650000     0.2977290000
| 13>  C        2.2333810000    -0.0163770000    -0.6082860000
| 14>  C        3.0049780000     1.2214400000    -0.9495200000
| 15>  C        4.1771400000     1.5070090000    -0.0282590000
| 16>  C        4.9394400000     2.7348630000    -0.4344800000
| 17>  C        6.3837880000     2.8464670000    -0.1699140000
| 18>  N        5.8946930000     2.6772180000    -1.5385950000
| 19>  H        1.3643840000    -0.2222060000    -1.2713630000
| 20>  H        2.2895410000     2.0552200000    -0.9616170000
| 21>  H        3.3271030000     1.1230960000    -1.9954320000
| 22>  H        4.8499990000     0.6430190000    -0.0141710000
| 23>  H        3.8115600000     1.6164450000     0.9974810000
| 24>  H        4.3584680000     3.6552410000    -0.4321970000
| 25>  H        6.8698270000     2.0047440000     0.3145110000
| 26>  H        6.8291470000     3.8122940000     0.0417220000
| 27>  H        6.0256230000     1.7130020000    -1.8299010000
| 28> *
| 29>
| 30>                          ****END OF INPUT****
 Total Charge           Charge          ....    0
 Multiplicity           Mult            ....    1
 Number of Electrons    NEL             ....   54
 Basis Dimension        Dim             ....  143

MULLIKEN ATOMIC CHARGES
-----------------------
   0 O :   -0.162653
   1 C :    0.088279
   2 C :   -0.029990
   3 C :    0.092676
   4 C :   -0.126770
   5 C :    0.043934
   6 N :   -0.196971
   7 H :   -0.005206
   8 H :    0.041367
   9 H :    0.039659
  10 H :    0.002573
  11 H :    0.026249
  12 H :    0.022455
  13 H :    0.029542
  14 H :    0.033212
  15 H :    0.101644
Sum of atomic charges:   -0.0000000

LOEWDIN ATOMIC CHARGES
----------------------
   0 O :   -0.109318
   1 C :    0.092464
   2 C :   -0.085219
   3 C :   -0.041646
   4 C :   -0.010410
   5 C :    0.001925
   6 N :   -0.107449
   7 H :   -0.010657
   8 H :    0.048633
   9 H :    0.047639
  10 H :    0.029418
  11 H :    0.037863
  12 H :    0.021128
  13 H :    0.015649
  14 H :    0.021204
  15 H :    0.048776

  Mayer bond orders larger than 0.1
B(  0-O ,  1-C ) :   2.1835 B(  1-C ,  2-C ) :   0.9693 B(  1-C ,  7-H ) :   0.9303
B(  2-C ,  3-C ) :   1.0653 B(  2-C ,  8-H ) :   0.9061 B(  2-C ,  9-H ) :   0.9053
B(  3-C ,  4-C ) :   1.0668 B(  3-C , 10-H ) :   0.9134 B(  3-C , 11-H ) :   0.9198
B(  4-C ,  5-C ) :   1.0572 B(  4-C ,  6-N ) :   0.9869 B(  4-C , 12-H ) :   0.9292
B(  5-C ,  6-N ) :   1.0089 B(  5-C , 13-H ) :   0.9413 B(  5-C , 14-H ) :   0.9392
B(  6-N , 15-H ) :   0.9475

FINAL SINGLE POINT ENERGY      -325.224634307409

DIPOLE MOMENT
-------------
                                X             Y             Z
Electronic contribution:     -2.31974      -3.10449       0.52626
Nuclear contribution   :      2.19479       3.30985      -0.71367
                        -----------------------------------------
Total Dipole Moment    :     -0.12495       0.20536      -0.18741
                        -----------------------------------------
Magnitude (a.u.)       :      0.30480
Magnitude (Debye)      :      0.77475

                             ****ORCA TERMINATED NORMALLY****
TOTAL RUN TIME: 0 days 0 hours 0 minutes 7 seconds 546 msec
