                         Program Version 3.0.3 - RELEASE   -
|  1> ! RI PBE def2-SVP def2-SVP/J NBO PAL2
|  2> % maxcore 2000
|  3> % output
|  4>     # printlevel mini
|  5>     print[ P_Basis ] 0
|  6>     print[ P_SCFInfo ] 1
|  7>     print[ P_SCFIterInfo ] 1
|  8>     print[ P_OrbEn ] 0
|  9>     print[ P_Cartesian ] 0
| 10> end
| 11> *xyz 0 1
| 12>  O        2.6444590000    -1.2135510000    -1.7908360000
| 13>  C        3.0865760000    -0.5177380000    -0.9029420000
| 14>  C        3.1179340000     0.9256480000    -1.0052260000
| 15>  C        3.1555560000     2.1249300000    -1.0664710000
| 16>  C        3.6210050000    -1.0911140000     0.3591890000
| 17>  C        2.7092570000    -2.0366810000     1.0683150000
| 18>  N        3.8795750000    -2.5196330000     0.3771880000
| 19>  H        3.1806340000     3.1877910000    -1.1374840000
| 20>  H        4.2933420000    -0.4646380000     0.9342220000
| 21>  H        1.7342000000    -2.1998080000     0.6204500000
| 22>  H        2.7511070000    -2.0729990000     2.1510880000
| 23>  H        3.6036470000    -2.8904280000    -0.5309130000
| 24> *
| 25>
| 26>                          ****END OF INPUT****
 Total Charge           Charge          ....    0
 Multiplicity           Mult            ....    1
 Number of Electrons    NEL             ....   50
 Basis Dimension        Dim             ....  123

MULLIKEN ATOMIC CHARGES
-----------------------
   0 O :   -0.158567
   1 C :    0.060157
   2 C :    0.397161
   3 C :   -0.400413
   4 C :   -0.104303
   5 C :    0.069183
   6 N :   -0.143230
   7 H :    0.023175
   8 H :    0.034240
   9 H :    0.049714
  10 H :    0.056152
  11 H :    0.116730
Sum of atomic charges:   -0.0000000

LOEWDIN ATOMIC CHARGES
----------------------
   0 O :   -0.110941
   1 C :    0.027646
   2 C :   -0.032905
   3 C :   -0.005100
   4 C :   -0.032367
   5 C :    0.035588
   6 N :   -0.065420
   7 H :    0.044186
   8 H :    0.032743
   9 H :    0.023236
  10 H :    0.028717
  11 H :    0.054618

  Mayer bond orders larger than 0.1
B(  0-O ,  1-C ) :   2.1015 B(  0-O ,  3-C ) :   0.1001 B(  1-C ,  2-C ) :   0.8821
B(  1-C ,  4-C ) :   0.9719 B(  2-C ,  3-C ) :   2.3323 B(  2-C ,  7-H ) :  -0.1008
B(  3-C ,  7-H ) :   1.0891 B(  4-C ,  5-C ) :   1.0009 B(  4-C ,  6-N ) :   1.0279
B(  4-C ,  8-H ) :   0.9359 B(  5-C ,  6-N ) :   1.0005 B(  5-C ,  9-H ) :   0.9351
B(  5-C , 10-H ) :   0.9440 B(  6-N , 11-H ) :   0.9297

FINAL SINGLE POINT ENERGY      -322.768212143363

DIPOLE MOMENT
-------------
                                X             Y             Z
Electronic contribution:      0.09628       1.66759      -3.30562
Nuclear contribution   :     -0.23968      -0.91152       3.86346
                        -----------------------------------------
Total Dipole Moment    :     -0.14341       0.75607       0.55784
                        -----------------------------------------
Magnitude (a.u.)       :      0.95047
Magnitude (Debye)      :      2.41591

                             ****ORCA TERMINATED NORMALLY****
TOTAL RUN TIME: 0 days 0 hours 0 minutes 6 seconds 242 msec
