                         Program Version 3.0.3 - RELEASE   -
|  1> ! RI PBE def2-SVP def2-SVP/J NBO PAL2
|  2> % maxcore 2000
|  3> % output
|  4>     # printlevel mini
|  5>     print[ P_Basis ] 0
|  6>     print[ P_SCFInfo ] 1
|  7>     print[ P_SCFIterInfo ] 1
|  8>     print[ P_OrbEn ] 0
|  9>     print[ P_Cartesian ] 0
| 10> end
| 11> *xyz 0 1
| 12>  O        1.5163600000     0.8547920000     0.2663740000
| 13>  C        2.5589390000     0.4294300000    -0.1648200000
| 14>  C        3.0767670000    -0.9116330000     0.0908080000
| 15>  C        4.2568110000    -1.2888640000    -0.4104270000
| 16>  C        4.9290790000    -2.5793600000    -0.2286300000
| 17>  C        5.3990630000    -2.9784760000     1.1303360000
| 18>  N        4.3134410000    -3.6869760000     0.4830910000
| 19>  H        3.2105340000     1.0602390000    -0.8091700000
| 20>  H        2.4503980000    -1.5599530000     0.6971420000
| 21>  H        4.7967410000    -0.5699060000    -1.0258830000
| 22>  H        5.5444440000    -2.8892820000    -1.0684450000
| 23>  H        5.1708510000    -2.2977300000     1.9440740000
| 24>  H        6.3275680000    -3.5308730000     1.2255770000
| 25>  H        3.4191040000    -3.4108290000     0.8738630000
| 26> *
| 27>
| 28>                          ****END OF INPUT****
 Total Charge           Charge          ....    0
 Multiplicity           Mult            ....    1
 Number of Electrons    NEL             ....   52
 Basis Dimension        Dim             ....  133

MULLIKEN ATOMIC CHARGES
-----------------------
   0 O :   -0.168054
   1 C :    0.114695
   2 C :   -0.066982
   3 C :    0.057931
   4 C :   -0.065682
   5 C :    0.060734
   6 N :   -0.169625
   7 H :   -0.029036
   8 H :    0.002252
   9 H :    0.014103
  10 H :    0.040811
  11 H :    0.046537
  12 H :    0.049970
  13 H :    0.112347
Sum of atomic charges:   -0.0000000

LOEWDIN ATOMIC CHARGES
----------------------
   0 O :   -0.118417
   1 C :    0.065772
   2 C :   -0.087645
   3 C :    0.008881
   4 C :   -0.009828
   5 C :    0.031203
   6 N :   -0.076937
   7 H :   -0.013802
   8 H :    0.026681
   9 H :    0.036507
  10 H :    0.034950
  11 H :    0.021349
  12 H :    0.026848
  13 H :    0.054437

  Mayer bond orders larger than 0.1
B(  0-O ,  1-C ) :   2.1089 B(  1-C ,  2-C ) :   1.0503 B(  1-C ,  7-H ) :   0.9327
B(  2-C ,  3-C ) :   1.6723 B(  2-C ,  8-H ) :   0.9544 B(  3-C ,  4-C ) :   1.0574
B(  3-C ,  9-H ) :   0.9560 B(  4-C ,  5-C ) :   1.0078 B(  4-C ,  6-N ) :   1.0157
B(  4-C , 10-H ) :   0.9206 B(  5-C ,  6-N ) :   0.9996 B(  5-C , 11-H ) :   0.9450
B(  5-C , 12-H ) :   0.9419 B(  6-N , 13-H ) :   0.9489

FINAL SINGLE POINT ENERGY      -324.012092640911

DIPOLE MOMENT
-------------
                                X             Y             Z
Electronic contribution:     -3.60951       2.57424      -0.51783
Nuclear contribution   :      4.72224      -2.94125       0.51655
                        -----------------------------------------
Total Dipole Moment    :      1.11273      -0.36701      -0.00128
                        -----------------------------------------
Magnitude (a.u.)       :      1.17169
Magnitude (Debye)      :      2.97821

                             ****ORCA TERMINATED NORMALLY****
TOTAL RUN TIME: 0 days 0 hours 0 minutes 6 seconds 309 msec
