                         Program Version 3.0.3 - RELEASE   -
|  1> ! RI PBE def2-SVP def2-SVP/J NBO PAL2
|  2> % maxcore 2000
|  3> % output
|  4>     # printlevel mini
|  5>     print[ P_Basis ] 0
|  6>     print[ P_SCFInfo ] 1
|  7>     print[ P_SCFIterInfo ] 1
|  8>     print[ P_OrbEn ] 0
|  9>     print[ P_Cartesian ] 0
| 10> end
| 11> *xyz 0 1
| 12>  O        0.8443770000    -0.3152030000    -0.2344550000
| 13>  C        2.0360970000    -0.3031450000    -0.0518250000
| 14>  C        2.8945060000    -1.4373270000    -0.2421260000
| 15>  C        3.6506720000    -2.3686590000    -0.3872550000
| 16>  C        4.5181970000    -3.4819490000    -0.5901630000
| 17>  C        4.0589250000    -4.8305300000    -0.1505770000
| 18>  N        4.1449270000    -4.5207860000    -1.5596740000
| 19>  H        2.5589690000     0.6126830000     0.2845170000
| 20>  H        5.5807510000    -3.2639300000    -0.5637320000
| 21>  H        3.0844500000    -4.8907240000     0.3212730000
| 22>  H        4.8050610000    -5.5253250000     0.2184650000
| 23>  H        3.2248790000    -4.3167840000    -1.9370570000
| 24> *
| 25>
| 26>                          ****END OF INPUT****
 Total Charge           Charge          ....    0
 Multiplicity           Mult            ....    1
 Number of Electrons    NEL             ....   50
 Basis Dimension        Dim             ....  123

MULLIKEN ATOMIC CHARGES
-----------------------
   0 O :   -0.160992
   1 C :    0.078647
   2 C :   -0.049749
   3 C :    0.049085
   4 C :   -0.143636
   5 C :    0.069852
   6 N :   -0.158093
   7 H :    0.013465
   8 H :    0.064808
   9 H :    0.054137
  10 H :    0.056649
  11 H :    0.125828
Sum of atomic charges:   -0.0000000

LOEWDIN ATOMIC CHARGES
----------------------
   0 O :   -0.100437
   1 C :    0.062952
   2 C :   -0.080140
   3 C :   -0.008898
   4 C :   -0.013323
   5 C :    0.034035
   6 N :   -0.067377
   7 H :    0.003938
   8 H :    0.044831
   9 H :    0.027001
  10 H :    0.031568
  11 H :    0.065851

  Mayer bond orders larger than 0.1
B(  0-O ,  1-C ) :   2.1210 B(  0-O ,  3-C ) :   0.1104 B(  1-C ,  2-C ) :   0.9111
B(  1-C ,  7-H ) :   0.9414 B(  2-C ,  3-C ) :   2.4703 B(  3-C ,  4-C ) :   1.0077
B(  4-C ,  5-C ) :   1.0060 B(  4-C ,  6-N ) :   0.9953 B(  4-C ,  8-H ) :   0.9184
B(  5-C ,  6-N ) :   1.0012 B(  5-C ,  9-H ) :   0.9435 B(  5-C , 10-H ) :   0.9347
B(  6-N , 11-H ) :   0.9454

FINAL SINGLE POINT ENERGY      -322.764842050277

DIPOLE MOMENT
-------------
                                X             Y             Z
Electronic contribution:     -2.59117       4.13897      -0.26777
Nuclear contribution   :      3.38286      -4.69310       0.61291
                        -----------------------------------------
Total Dipole Moment    :      0.79170      -0.55413       0.34513
                        -----------------------------------------
Magnitude (a.u.)       :      1.02614
Magnitude (Debye)      :      2.60825

                             ****ORCA TERMINATED NORMALLY****
TOTAL RUN TIME: 0 days 0 hours 0 minutes 5 seconds 915 msec
