                         Program Version 3.0.3 - RELEASE   -
|  1> ! RI PBE def2-SVP def2-SVP/J NBO PAL2
|  2> % maxcore 2000
|  3> % output
|  4>     # printlevel mini
|  5>     print[ P_Basis ] 0
|  6>     print[ P_SCFInfo ] 1
|  7>     print[ P_SCFIterInfo ] 1
|  8>     print[ P_OrbEn ] 0
|  9>     print[ P_Cartesian ] 0
| 10> end
| 11> *xyz 0 1
| 12>  O        1.0745180000     0.2245970000    -0.9258100000
| 13>  C        2.3828470000    -0.0513760000    -0.4496890000
| 14>  C        2.8288860000    -1.4190630000    -0.8602560000
| 15>  C        3.2115440000    -2.3616340000    -0.0103100000
| 16>  C        3.3045540000     1.0140160000    -0.9973680000
| 17>  C        3.1132580000     1.5572810000    -2.3534400000
| 18>  N        2.8244730000     2.3739080000    -1.1733190000
| 19>  H        0.4973190000    -0.4858720000    -0.6358020000
| 20>  H        2.4013340000     0.0137580000     0.6489230000
| 21>  H        2.8230280000    -1.6081430000    -1.9316800000
| 22>  H        3.2212900000    -2.1837500000     1.0611040000
| 23>  H        3.5363850000    -3.3386400000    -0.3488660000
| 24>  H        4.3138840000     0.9420680000    -0.6016350000
| 25>  H        2.2723610000     1.1836570000    -2.9272800000
| 26>  H        3.9743260000     1.8724820000    -2.9324550000
| 27>  H        1.8190930000     2.3817020000    -1.0261160000
| 28> *
| 29>
| 30>                          ****END OF INPUT****
 Total Charge           Charge          ....    0
 Multiplicity           Mult            ....    1
 Number of Electrons    NEL             ....   54
 Basis Dimension        Dim             ....  143

MULLIKEN ATOMIC CHARGES
-----------------------
   0 O :   -0.263125
   1 C :    0.191254
   2 C :   -0.066100
   3 C :   -0.024824
   4 C :   -0.113544
   5 C :    0.048229
   6 N :   -0.182904
   7 H :    0.161575
   8 H :   -0.000148
   9 H :    0.004756
  10 H :    0.026159
  11 H :    0.027640
  12 H :    0.017786
  13 H :    0.034148
  14 H :    0.032178
  15 H :    0.106921
Sum of atomic charges:   -0.0000000

LOEWDIN ATOMIC CHARGES
----------------------
   0 O :   -0.103662
   1 C :    0.039575
   2 C :   -0.045186
   3 C :   -0.053931
   4 C :   -0.018299
   5 C :    0.000255
   6 N :   -0.096649
   7 H :    0.075018
   8 H :    0.015886
   9 H :    0.028220
  10 H :    0.024000
  11 H :    0.027620
  12 H :    0.024022
  13 H :    0.014961
  14 H :    0.019192
  15 H :    0.048976

  Mayer bond orders larger than 0.1
B(  0-O ,  1-C ) :   1.0346 B(  0-O ,  7-H ) :   0.9715 B(  1-C ,  2-C ) :   1.0389
B(  1-C ,  4-C ) :   0.9879 B(  1-C ,  8-H ) :   0.9090 B(  2-C ,  3-C ) :   1.9646
B(  2-C ,  9-H ) :   0.9533 B(  3-C , 10-H ) :   0.9492 B(  3-C , 11-H ) :   0.9365
B(  4-C ,  5-C ) :   1.0468 B(  4-C ,  6-N ) :   1.0172 B(  4-C , 12-H ) :   0.9338
B(  5-C ,  6-N ) :   1.0016 B(  5-C , 13-H ) :   0.9373 B(  5-C , 14-H ) :   0.9408
B(  6-N , 15-H ) :   0.9406

FINAL SINGLE POINT ENERGY      -325.201426631626

DIPOLE MOMENT
-------------
                                X             Y             Z
Electronic contribution:     -1.51202       1.88780       0.13060
Nuclear contribution   :      1.14924      -2.87837       0.02966
                        -----------------------------------------
Total Dipole Moment    :     -0.36278      -0.99057       0.16026
                        -----------------------------------------
Magnitude (a.u.)       :      1.06702
Magnitude (Debye)      :      2.71214

                             ****ORCA TERMINATED NORMALLY****
TOTAL RUN TIME: 0 days 0 hours 0 minutes 6 seconds 915 msec
