                         Program Version 3.0.3 - RELEASE   -
|  1> ! RI PBE def2-SVP def2-SVP/J NBO PAL2
|  2> % maxcore 2000
|  3> % output
|  4>     # printlevel mini
|  5>     print[ P_Basis ] 0
|  6>     print[ P_SCFInfo ] 1
|  7>     print[ P_SCFIterInfo ] 1
|  8>     print[ P_OrbEn ] 0
|  9>     print[ P_Cartesian ] 0
| 10> end
| 11> *xyz 0 1
| 12>  O        1.0645160000     0.1866300000    -0.1165840000
| 13>  C        2.4595890000     0.0038210000     0.0529550000
| 14>  C        2.9521140000    -1.1207930000    -0.7431060000
| 15>  C        3.3281030000    -2.0547900000    -1.3974790000
| 16>  C        3.1210660000     1.3133940000    -0.3040410000
| 17>  C        4.5301740000     1.3625680000    -0.7292640000
| 18>  N        3.4554940000     1.6455020000    -1.6755720000
| 19>  H        0.6267740000    -0.6528150000     0.0503000000
| 20>  H        2.6851780000    -0.2067140000     1.1099420000
| 21>  H        3.6604400000    -2.8863780000    -1.9737660000
| 22>  H        2.7100400000     2.1393470000     0.2692510000
| 23>  H        5.0610740000     0.4200530000    -0.8201750000
| 24>  H        5.1412400000     2.2151280000    -0.4546020000
| 25>  H        3.3006200000     0.8391480000    -2.2746690000
| 26> *
| 27>
| 28>                          ****END OF INPUT****
 Total Charge           Charge          ....    0
 Multiplicity           Mult            ....    1
 Number of Electrons    NEL             ....   52
 Basis Dimension        Dim             ....  133

MULLIKEN ATOMIC CHARGES
-----------------------
   0 O :   -0.246965
   1 C :    0.331844
   2 C :    0.246626
   3 C :   -0.485280
   4 C :   -0.127766
   5 C :    0.041471
   6 N :   -0.179415
   7 H :    0.158940
   8 H :    0.028987
   9 H :    0.009235
  10 H :    0.035978
  11 H :    0.037713
  12 H :    0.036857
  13 H :    0.111775
Sum of atomic charges:   -0.0000000

LOEWDIN ATOMIC CHARGES
----------------------
   0 O :   -0.100703
   1 C :    0.033085
   2 C :   -0.043889
   3 C :   -0.067094
   4 C :   -0.006111
   5 C :    0.002434
   6 N :   -0.087822
   7 H :    0.073743
   8 H :    0.033246
   9 H :    0.039533
  10 H :    0.028941
  11 H :    0.017853
  12 H :    0.022569
  13 H :    0.054215

  Mayer bond orders larger than 0.1
B(  0-O ,  1-C ) :   1.1185 B(  0-O ,  7-H ) :   0.9749 B(  1-C ,  2-C ) :   0.9095
B(  1-C ,  4-C ) :   0.9489 B(  1-C ,  8-H ) :   0.8934 B(  2-C ,  3-C ) :   2.3606
B(  2-C ,  9-H ) :  -0.1117 B(  3-C ,  9-H ) :   1.1008 B(  4-C ,  5-C ) :   1.0415
B(  4-C ,  6-N ) :   0.9860 B(  4-C , 10-H ) :   0.9274 B(  5-C ,  6-N ) :   1.0226
B(  5-C , 11-H ) :   0.9298 B(  5-C , 12-H ) :   0.9394 B(  6-N , 13-H ) :   0.9452

FINAL SINGLE POINT ENERGY      -323.951095568900

DIPOLE MOMENT
-------------
                                X             Y             Z
Electronic contribution:     -2.21018      -1.30075      -0.28862
Nuclear contribution   :      2.40908       0.27441       0.68949
                        -----------------------------------------
Total Dipole Moment    :      0.19890      -1.02634       0.40087
                        -----------------------------------------
Magnitude (a.u.)       :      1.11966
Magnitude (Debye)      :      2.84595

                             ****ORCA TERMINATED NORMALLY****
TOTAL RUN TIME: 0 days 0 hours 0 minutes 6 seconds 647 msec
