                         Program Version 3.0.3 - RELEASE   -
|  1> ! RI PBE def2-SVP def2-SVP/J NBO PAL2
|  2> % maxcore 2000
|  3> % output
|  4>     # printlevel mini
|  5>     print[ P_Basis ] 0
|  6>     print[ P_SCFInfo ] 1
|  7>     print[ P_SCFIterInfo ] 1
|  8>     print[ P_OrbEn ] 0
|  9>     print[ P_Cartesian ] 0
| 10> end
| 11> *xyz 0 1
| 12>  O        3.8110310000     0.9879300000    -0.5569640000
| 13>  C        2.9416470000     0.2275040000     0.2472770000
| 14>  C        3.3850740000    -1.1932180000     0.3009460000
| 15>  C        4.4427510000    -1.6823420000    -0.3329290000
| 16>  C        4.9044510000    -3.0833750000    -0.2789570000
| 17>  C        5.7971990000    -3.5423130000     0.8115340000
| 18>  N        4.4235680000    -4.0284500000     0.7158780000
| 19>  H        3.4832150000     1.8885380000    -0.5913430000
| 20>  H        1.9116360000     0.2609580000    -0.1418520000
| 21>  H        2.9016220000     0.6264090000     1.2735730000
| 22>  H        2.7527560000    -1.8377290000     0.9085640000
| 23>  H        5.0264780000    -1.0132950000    -0.9592230000
| 24>  H        5.0628750000    -3.5372950000    -1.2552800000
| 25>  H        6.0363990000    -2.8211830000     1.5865990000
| 26>  H        6.5652780000    -4.2811430000     0.6091340000
| 27>  H        3.8468410000    -3.5504960000     1.4000440000
| 28> *
| 29>
| 30>                          ****END OF INPUT****
 Total Charge           Charge          ....    0
 Multiplicity           Mult            ....    1
 Number of Electrons    NEL             ....   54
 Basis Dimension        Dim             ....  143

MULLIKEN ATOMIC CHARGES
-----------------------
   0 O :   -0.266078
   1 C :    0.220140
   2 C :   -0.174292
   3 C :    0.037547
   4 C :   -0.061282
   5 C :    0.038609
   6 N :   -0.189538
   7 H :    0.159224
   8 H :    0.008765
   9 H :    0.007691
  10 H :    0.002009
  11 H :    0.011290
  12 H :    0.033295
  13 H :    0.031358
  14 H :    0.036690
  15 H :    0.104572
Sum of atomic charges:   -0.0000000

LOEWDIN ATOMIC CHARGES
----------------------
   0 O :   -0.117751
   1 C :    0.057950
   2 C :   -0.071617
   3 C :   -0.043074
   4 C :   -0.008982
   5 C :    0.008948
   6 N :   -0.097804
   7 H :    0.074541
   8 H :    0.015704
   9 H :    0.014148
  10 H :    0.021302
  11 H :    0.032578
  12 H :    0.029592
  13 H :    0.015711
  14 H :    0.020127
  15 H :    0.048627

  Mayer bond orders larger than 0.1
B(  0-O ,  1-C ) :   1.1150 B(  0-O ,  7-H ) :   0.9755 B(  1-C ,  2-C ) :   1.0493
B(  1-C ,  8-H ) :   0.9161 B(  1-C ,  9-H ) :   0.9170 B(  2-C ,  3-C ) :   1.8875
B(  2-C , 10-H ) :   0.9338 B(  3-C ,  4-C ) :   1.0390 B(  3-C , 11-H ) :   0.9426
B(  4-C ,  5-C ) :   1.0334 B(  4-C ,  6-N ) :   1.0177 B(  4-C , 12-H ) :   0.9188
B(  5-C ,  6-N ) :   1.0074 B(  5-C , 13-H ) :   0.9436 B(  5-C , 14-H ) :   0.9420
B(  6-N , 15-H ) :   0.9461

FINAL SINGLE POINT ENERGY      -325.197835169880

DIPOLE MOMENT
-------------
                                X             Y             Z
Electronic contribution:      0.06139       0.18959      -1.23350
Nuclear contribution   :     -0.40511       0.81508       1.54512
                        -----------------------------------------
Total Dipole Moment    :     -0.34372       1.00467       0.31162
                        -----------------------------------------
Magnitude (a.u.)       :      1.10662
Magnitude (Debye)      :      2.81281

                             ****ORCA TERMINATED NORMALLY****
TOTAL RUN TIME: 0 days 0 hours 0 minutes 6 seconds 957 msec
