                         Program Version 3.0.3 - RELEASE   -
|  1> ! RI PBE def2-SVP def2-SVP/J NBO PAL2
|  2> % maxcore 2000
|  3> % output
|  4>     # printlevel mini
|  5>     print[ P_Basis ] 0
|  6>     print[ P_SCFInfo ] 1
|  7>     print[ P_SCFIterInfo ] 1
|  8>     print[ P_OrbEn ] 0
|  9>     print[ P_Cartesian ] 0
| 10> end
| 11> *xyz 0 1
| 12>  O        1.0533560000    -0.1641350000     0.4291150000
| 13>  C        2.4578880000    -0.1852450000     0.3732390000
| 14>  C        2.9487270000    -1.3647080000    -0.4096110000
| 15>  C        2.1236180000    -2.2544010000    -0.9481930000
| 16>  C        4.4286170000    -1.4277040000    -0.5149730000
| 17>  C        5.1125380000    -2.1332590000    -1.6094390000
| 18>  N        5.1161020000    -0.6718680000    -1.5752120000
| 19>  H        0.7816960000     0.6061760000     0.9317540000
| 20>  H        2.8961350000    -0.2384890000     1.3827460000
| 21>  H        2.8538420000     0.7317710000    -0.0900820000
| 22>  H        1.0513070000    -2.1400700000    -0.8552320000
| 23>  H        2.4993250000    -3.1180640000    -1.4831050000
| 24>  H        4.9520970000    -1.3565550000     0.4369330000
| 25>  H        4.5030030000    -2.6277410000    -2.3575270000
| 26>  H        6.0751150000    -2.5978180000    -1.4259810000
| 27>  H        4.4196230000    -0.3282990000    -2.2307310000
| 28> *
| 29>
| 30>                          ****END OF INPUT****
 Total Charge           Charge          ....    0
 Multiplicity           Mult            ....    1
 Number of Electrons    NEL             ....   54
 Basis Dimension        Dim             ....  143

MULLIKEN ATOMIC CHARGES
-----------------------
   0 O :   -0.263547
   1 C :    0.248644
   2 C :   -0.168045
   3 C :   -0.013756
   4 C :   -0.064186
   5 C :    0.041794
   6 N :   -0.190865
   7 H :    0.159530
   8 H :    0.005720
   9 H :    0.005413
  10 H :    0.030319
  11 H :    0.008318
  12 H :    0.026107
  13 H :    0.034870
  14 H :    0.033371
  15 H :    0.106312
Sum of atomic charges:   -0.0000000

LOEWDIN ATOMIC CHARGES
----------------------
   0 O :   -0.114126
   1 C :    0.063150
   2 C :   -0.062983
   3 C :   -0.058401
   4 C :   -0.003297
   5 C :    0.006234
   6 N :   -0.100621
   7 H :    0.075067
   8 H :    0.016268
   9 H :    0.015336
  10 H :    0.026631
  11 H :    0.020318
  12 H :    0.024475
  13 H :    0.017401
  14 H :    0.022652
  15 H :    0.051896

  Mayer bond orders larger than 0.1
B(  0-O ,  1-C ) :   1.1124 B(  0-O ,  7-H ) :   0.9751 B(  1-C ,  2-C ) :   1.0046
B(  1-C ,  8-H ) :   0.9138 B(  1-C ,  9-H ) :   0.9146 B(  2-C ,  3-C ) :   1.9926
B(  2-C ,  4-C ) :   1.0288 B(  3-C , 10-H ) :   0.9195 B(  3-C , 11-H ) :   0.9241
B(  4-C ,  5-C ) :   1.0655 B(  4-C ,  6-N ) :   0.9786 B(  4-C , 12-H ) :   0.9197
B(  5-C ,  6-N ) :   1.0006 B(  5-C , 13-H ) :   0.9410 B(  5-C , 14-H ) :   0.9324
B(  6-N , 15-H ) :   0.9466

FINAL SINGLE POINT ENERGY      -325.196790642838

DIPOLE MOMENT
-------------
                                X             Y             Z
Electronic contribution:     -0.84597       1.11256       0.62356
Nuclear contribution   :      0.57083      -0.85752      -0.36604
                        -----------------------------------------
Total Dipole Moment    :     -0.27513       0.25504       0.25751
                        -----------------------------------------
Magnitude (a.u.)       :      0.45504
Magnitude (Debye)      :      1.15661

                             ****ORCA TERMINATED NORMALLY****
TOTAL RUN TIME: 0 days 0 hours 0 minutes 7 seconds 541 msec
