                         Program Version 3.0.3 - RELEASE   -
|  1> ! RI PBE def2-SVP def2-SVP/J NBO PAL2
|  2> % maxcore 2000
|  3> % output
|  4>     # printlevel mini
|  5>     print[ P_Basis ] 0
|  6>     print[ P_SCFInfo ] 1
|  7>     print[ P_SCFIterInfo ] 1
|  8>     print[ P_OrbEn ] 0
|  9>     print[ P_Cartesian ] 0
| 10> end
| 11> *xyz 0 1
| 12>  O        1.0575290000    -0.1818290000    -0.2162410000
| 13>  C        2.4373790000     0.0673350000    -0.0268720000
| 14>  C        2.9034680000     1.0467910000    -0.9909350000
| 15>  C        3.3045570000     1.8567680000    -1.7856270000
| 16>  C        3.7919350000     2.8257880000    -2.7213380000
| 17>  C        2.8918880000     3.9191340000    -3.1682700000
| 18>  N        4.0117220000     4.2135580000    -2.2921270000
| 19>  H        0.7857470000    -0.8334130000     0.4354430000
| 20>  H        3.0275690000    -0.8517590000    -0.1508510000
| 21>  H        2.6351380000     0.4470410000     0.9857900000
| 22>  H        4.5417550000     2.4645050000    -3.4182200000
| 23>  H        1.8870800000     3.9250470000    -2.7605760000
| 24>  H        2.9879340000     4.2928570000    -4.1817680000
| 25>  H        3.6876010000     4.3183780000    -1.3362080000
| 26> *
| 27>
| 28>                          ****END OF INPUT****
 Total Charge           Charge          ....    0
 Multiplicity           Mult            ....    1
 Number of Electrons    NEL             ....   52
 Basis Dimension        Dim             ....  133

MULLIKEN ATOMIC CHARGES
-----------------------
   0 O :   -0.265914
   1 C :    0.210300
   2 C :   -0.138622
   3 C :   -0.003605
   4 C :   -0.146942
   5 C :    0.068051
   6 N :   -0.172162
   7 H :    0.153902
   8 H :    0.023834
   9 H :    0.019179
  10 H :    0.052399
  11 H :    0.043982
  12 H :    0.042534
  13 H :    0.113064
Sum of atomic charges:   -0.0000000

LOEWDIN ATOMIC CHARGES
----------------------
   0 O :   -0.122998
   1 C :    0.049351
   2 C :   -0.059803
   3 C :   -0.057846
   4 C :   -0.015409
   5 C :    0.023639
   6 N :   -0.085961
   7 H :    0.070191
   8 H :    0.028174
   9 H :    0.025934
  10 H :    0.038642
  11 H :    0.023062
  12 H :    0.024953
  13 H :    0.058070

  Mayer bond orders larger than 0.1
B(  0-O ,  1-C ) :   1.1396 B(  0-O ,  7-H ) :   0.9782 B(  1-C ,  2-C ) :   1.0289
B(  1-C ,  8-H ) :   0.9102 B(  1-C ,  9-H ) :   0.9091 B(  2-C ,  3-C ) :   2.5649
B(  3-C ,  4-C ) :   0.9911 B(  4-C ,  5-C ) :   1.0220 B(  4-C ,  6-N ) :   0.9959
B(  4-C , 10-H ) :   0.9192 B(  5-C ,  6-N ) :   1.0042 B(  5-C , 11-H ) :   0.9433
B(  5-C , 12-H ) :   0.9363 B(  6-N , 13-H ) :   0.9488

FINAL SINGLE POINT ENERGY      -323.955542129824

DIPOLE MOMENT
-------------
                                X             Y             Z
Electronic contribution:      0.18291      -0.78796       0.20715
Nuclear contribution   :     -0.40337       0.26967       0.41008
                        -----------------------------------------
Total Dipole Moment    :     -0.22045      -0.51829       0.61723
                        -----------------------------------------
Magnitude (a.u.)       :      0.83558
Magnitude (Debye)      :      2.12388

                             ****ORCA TERMINATED NORMALLY****
TOTAL RUN TIME: 0 days 0 hours 0 minutes 5 seconds 669 msec
