                         Program Version 3.0.3 - RELEASE   -
|  1> ! RI PBE def2-SVP def2-SVP/J NBO PAL2
|  2> % maxcore 2000
|  3> % output
|  4>     # printlevel mini
|  5>     print[ P_Basis ] 0
|  6>     print[ P_SCFInfo ] 1
|  7>     print[ P_SCFIterInfo ] 1
|  8>     print[ P_OrbEn ] 0
|  9>     print[ P_Cartesian ] 0
| 10> end
| 11> *xyz 0 1
| 12>  O        2.6268170000     1.1869890000    -0.4374590000
| 13>  C        2.4590550000     0.0483680000    -0.1106090000
| 14>  C        3.0908700000    -0.5846160000     1.1129910000
| 15>  C        2.1332410000    -1.3112530000     1.9240790000
| 16>  C        1.3178500000    -1.8974480000     2.5782440000
| 17>  C        1.6249240000    -0.8448150000    -0.9328670000
| 18>  N        1.0023310000    -1.5412040000    -1.6032790000
| 19>  H        3.5764910000     0.2158420000     1.6754530000
| 20>  H        3.8737490000    -1.2677200000     0.7572240000
| 21>  H        0.5969720000    -2.4227520000     3.1599030000
| 22> *
| 23>
| 24>                          ****END OF INPUT****
 Total Charge           Charge          ....    0
 Multiplicity           Mult            ....    1
 Number of Electrons    NEL             ....   48
 Basis Dimension        Dim             ....  113

MULLIKEN ATOMIC CHARGES
-----------------------
   0 O :   -0.086546
   1 C :   -0.036114
   2 C :    0.156571
   3 C :    0.279618
   4 C :   -0.432265
   5 C :   -0.113856
   6 N :    0.070636
   7 H :    0.060918
   8 H :    0.086300
   9 H :    0.014739
Sum of atomic charges:   -0.0000000

LOEWDIN ATOMIC CHARGES
----------------------
   0 O :   -0.047409
   1 C :    0.047249
   2 C :   -0.054186
   3 C :   -0.035718
   4 C :   -0.042283
   5 C :   -0.054596
   6 N :    0.001159
   7 H :    0.065804
   8 H :    0.077596
   9 H :    0.042384

  Mayer bond orders larger than 0.1
B(  0-O ,  1-C ) :   2.2290 B(  0-O ,  6-N ) :   0.1030 B(  1-C ,  2-C ) :   0.9849
B(  1-C ,  5-C ) :   0.9128 B(  2-C ,  3-C ) :   1.0447 B(  2-C ,  7-H ) :   0.8715
B(  2-C ,  8-H ) :   0.8809 B(  3-C ,  4-C ) :   2.3833 B(  3-C ,  9-H ) :  -0.1060
B(  4-C ,  9-H ) :   1.0972 B(  5-C ,  6-N ) :   3.0230

FINAL SINGLE POINT ENERGY      -321.577401689125

DIPOLE MOMENT
-------------
                                X             Y             Z
Electronic contribution:     -1.13350       1.20571      -3.32257
Nuclear contribution   :      1.75279      -1.38613       4.28460
                        -----------------------------------------
Total Dipole Moment    :      0.61929      -0.18042       0.96203
                        -----------------------------------------
Magnitude (a.u.)       :      1.15826
Magnitude (Debye)      :      2.94407

                             ****ORCA TERMINATED NORMALLY****
TOTAL RUN TIME: 0 days 0 hours 0 minutes 5 seconds 214 msec
