                         Program Version 3.0.3 - RELEASE   -
|  1> ! RI PBE def2-SVP def2-SVP/J NBO PAL2
|  2> % maxcore 2000
|  3> % output
|  4>     # printlevel mini
|  5>     print[ P_Basis ] 0
|  6>     print[ P_SCFInfo ] 1
|  7>     print[ P_SCFIterInfo ] 1
|  8>     print[ P_OrbEn ] 0
|  9>     print[ P_Cartesian ] 0
| 10> end
| 11> *xyz 0 1
| 12>  O        0.9526000000     0.3654360000    -0.2503050000
| 13>  C        2.1363510000     0.2150310000    -0.0953990000
| 14>  C        2.7300020000    -0.8737460000     0.6892840000
| 15>  C        4.0507080000    -0.9865510000     0.7989420000
| 16>  C        4.7473020000    -2.0806690000     1.5479090000
| 17>  C        5.7410200000    -1.5642840000     2.4803680000
| 18>  N        6.5254860000    -1.1451730000     3.2076880000
| 19>  H        2.8701640000     0.9137710000    -0.5519410000
| 20>  H        2.0435370000    -1.5689740000     1.1637870000
| 21>  H        4.6902100000    -0.2553340000     0.3087570000
| 22>  H        5.2676480000    -2.7387640000     0.8410550000
| 23>  H        4.0305720000    -2.6975420000     2.0952560000
| 24> *
| 25>
| 26>                          ****END OF INPUT****
 Total Charge           Charge          ....    0
 Multiplicity           Mult            ....    1
 Number of Electrons    NEL             ....   50
 Basis Dimension        Dim             ....  123

MULLIKEN ATOMIC CHARGES
-----------------------
   0 O :   -0.153195
   1 C :    0.118363
   2 C :   -0.011540
   3 C :   -0.059219
   4 C :    0.139023
   5 C :   -0.276377
   6 N :    0.055503
   7 H :   -0.014582
   8 H :    0.017219
   9 H :    0.037165
  10 H :    0.082891
  11 H :    0.064750
Sum of atomic charges:   -0.0000000

LOEWDIN ATOMIC CHARGES
----------------------
   0 O :   -0.100752
   1 C :    0.073424
   2 C :   -0.061985
   3 C :    0.024309
   4 C :   -0.051782
   5 C :   -0.042947
   6 N :   -0.050918
   7 H :   -0.008505
   8 H :    0.037848
   9 H :    0.038203
  10 H :    0.076743
  11 H :    0.066363

  Mayer bond orders larger than 0.1
B(  0-O ,  1-C ) :   2.1227 B(  0-O ,  3-C ) :   0.1015 B(  1-C ,  2-C ) :   1.0262
B(  1-C ,  7-H ) :   0.9332 B(  2-C ,  3-C ) :   1.7759 B(  2-C ,  8-H ) :   0.9610
B(  3-C ,  4-C ) :   1.0354 B(  3-C ,  9-H ) :   0.9536 B(  4-C ,  5-C ) :   1.0798
B(  4-C , 10-H ) :   0.8813 B(  4-C , 11-H ) :   0.8966 B(  5-C ,  6-N ) :   3.0611

FINAL SINGLE POINT ENERGY      -322.834106074048

DIPOLE MOMENT
-------------
                                X             Y             Z
Electronic contribution:      0.10593       1.12865       1.21541
Nuclear contribution   :      0.01034      -1.98571      -1.81317
                        -----------------------------------------
Total Dipole Moment    :      0.11627      -0.85707      -0.59776
                        -----------------------------------------
Magnitude (a.u.)       :      1.05138
Magnitude (Debye)      :      2.67240

                             ****ORCA TERMINATED NORMALLY****
TOTAL RUN TIME: 0 days 0 hours 0 minutes 5 seconds 558 msec
