                         Program Version 3.0.3 - RELEASE   -
|  1> ! RI PBE def2-SVP def2-SVP/J NBO PAL2
|  2> % maxcore 2000
|  3> % output
|  4>     # printlevel mini
|  5>     print[ P_Basis ] 0
|  6>     print[ P_SCFInfo ] 1
|  7>     print[ P_SCFIterInfo ] 1
|  8>     print[ P_OrbEn ] 0
|  9>     print[ P_Cartesian ] 0
| 10> end
| 11> *xyz 0 1
| 12>  O        1.4040960000    -0.3206200000     0.9297020000
| 13>  C        2.2002460000     0.0177560000     0.1135050000
| 14>  C        2.9879080000    -1.0024620000    -0.7464470000
| 15>  C        2.6156970000    -0.8167700000    -2.1413990000
| 16>  C        2.2636150000    -0.6223010000    -3.2697740000
| 17>  C        4.4186170000    -0.8081700000    -0.5250220000
| 18>  N        5.5324930000    -0.6263730000    -0.3106260000
| 19>  H        2.4295690000     1.0756510000    -0.1133060000
| 20>  H        2.7043230000    -2.0008110000    -0.3975520000
| 21>  H        1.9606360000    -0.4636990000    -4.2785810000
| 22> *
| 23>
| 24>                          ****END OF INPUT****
 Total Charge           Charge          ....    0
 Multiplicity           Mult            ....    1
 Number of Electrons    NEL             ....   48
 Basis Dimension        Dim             ....  113

MULLIKEN ATOMIC CHARGES
-----------------------
   0 O :   -0.112970
   1 C :    0.147062
   2 C :    0.022317
   3 C :    0.379907
   4 C :   -0.445257
   5 C :   -0.201520
   6 N :    0.078444
   7 H :    0.031658
   8 H :    0.080727
   9 H :    0.019631
Sum of atomic charges:   -0.0000000

LOEWDIN ATOMIC CHARGES
----------------------
   0 O :   -0.058962
   1 C :    0.127935
   2 C :   -0.092383
   3 C :   -0.020185
   4 C :   -0.026877
   5 C :   -0.031367
   6 N :   -0.034302
   7 H :    0.009566
   8 H :    0.080694
   9 H :    0.045881

  Mayer bond orders larger than 0.1
B(  0-O ,  1-C ) :   2.2239 B(  1-C ,  2-C ) :   0.8944 B(  1-C ,  7-H ) :   0.9215
B(  2-C ,  3-C ) :   0.9809 B(  2-C ,  5-C ) :   1.0070 B(  2-C ,  8-H ) :   0.8440
B(  3-C ,  4-C ) :   2.3573 B(  3-C ,  9-H ) :  -0.1138 B(  4-C ,  9-H ) :   1.1037
B(  5-C ,  6-N ) :   3.0708

FINAL SINGLE POINT ENERGY      -321.569394992265

DIPOLE MOMENT
-------------
                                X             Y             Z
Electronic contribution:      1.06368      -0.32681       1.48348
Nuclear contribution   :     -1.85356       0.33706      -2.25186
                        -----------------------------------------
Total Dipole Moment    :     -0.78987       0.01024      -0.76839
                        -----------------------------------------
Magnitude (a.u.)       :      1.10201
Magnitude (Debye)      :      2.80108

                             ****ORCA TERMINATED NORMALLY****
TOTAL RUN TIME: 0 days 0 hours 0 minutes 5 seconds 411 msec
