                         Program Version 3.0.3 - RELEASE   -
|  1> ! RI PBE def2-SVP def2-SVP/J NBO PAL2
|  2> % maxcore 2000
|  3> % output
|  4>     # printlevel mini
|  5>     print[ P_Basis ] 0
|  6>     print[ P_SCFInfo ] 1
|  7>     print[ P_SCFIterInfo ] 1
|  8>     print[ P_OrbEn ] 0
|  9>     print[ P_Cartesian ] 0
| 10> end
| 11> *xyz 0 1
| 12>  O        0.9812660000    -0.2340250000    -0.0077160000
| 13>  C        2.1773830000    -0.1163180000    -0.0190030000
| 14>  C        2.8723230000     0.9838420000    -0.6440100000
| 15>  C        3.4950780000     1.8795280000    -1.1508540000
| 16>  C        4.2488150000     2.9606380000    -1.7623690000
| 17>  C        3.4099740000     3.9669080000    -2.4074510000
| 18>  N        2.7729790000     4.7715670000    -2.9216470000
| 19>  H        2.8402950000    -0.8612040000     0.4602500000
| 20>  H        4.9405290000     2.5531380000    -2.5082320000
| 21>  H        4.8664590000     3.4554260000    -1.0043890000
| 22> *
| 23>
| 24>                          ****END OF INPUT****
 Total Charge           Charge          ....    0
 Multiplicity           Mult            ....    1
 Number of Electrons    NEL             ....   48
 Basis Dimension        Dim             ....  113

MULLIKEN ATOMIC CHARGES
-----------------------
   0 O :   -0.138254
   1 C :    0.080496
   2 C :   -0.041923
   3 C :   -0.081032
   4 C :    0.170498
   5 C :   -0.261010
   6 N :    0.064204
   7 H :    0.024350
   8 H :    0.091726
   9 H :    0.090945
Sum of atomic charges:   -0.0000000

LOEWDIN ATOMIC CHARGES
----------------------
   0 O :   -0.077524
   1 C :    0.071957
   2 C :   -0.059382
   3 C :    0.006849
   4 C :   -0.051798
   5 C :   -0.036300
   6 N :   -0.036424
   7 H :    0.007393
   8 H :    0.087644
   9 H :    0.087585

  Mayer bond orders larger than 0.1
B(  0-O ,  1-C ) :   2.1469 B(  0-O ,  3-C ) :   0.1182 B(  1-C ,  2-C ) :   0.8902
B(  1-C ,  7-H ) :   0.9423 B(  2-C ,  3-C ) :   2.6657 B(  3-C ,  4-C ) :   1.0407
B(  4-C ,  5-C ) :   1.0642 B(  4-C ,  8-H ) :   0.8698 B(  4-C ,  9-H ) :   0.8691
B(  5-C ,  6-N ) :   3.0697

FINAL SINGLE POINT ENERGY      -321.581322072956

DIPOLE MOMENT
-------------
                                X             Y             Z
Electronic contribution:     -2.11944       0.30427      -0.28729
Nuclear contribution   :      3.91892      -0.76628       0.65263
                        -----------------------------------------
Total Dipole Moment    :      1.79948      -0.46200       0.36534
                        -----------------------------------------
Magnitude (a.u.)       :      1.89342
Magnitude (Debye)      :      4.81269

                             ****ORCA TERMINATED NORMALLY****
TOTAL RUN TIME: 0 days 0 hours 0 minutes 5 seconds 212 msec
