                         Program Version 3.0.3 - RELEASE   -
|  1> ! RI PBE def2-SVP def2-SVP/J NBO PAL2
|  2> % maxcore 2000
|  3> % output
|  4>     # printlevel mini
|  5>     print[ P_Basis ] 0
|  6>     print[ P_SCFInfo ] 1
|  7>     print[ P_SCFIterInfo ] 1
|  8>     print[ P_OrbEn ] 0
|  9>     print[ P_Cartesian ] 0
| 10> end
| 11> *xyz 0 1
| 12>  O        2.2576430000    -0.8933060000    -0.6172390000
| 13>  C        1.9693970000    -0.0076910000     0.1354410000
| 14>  C        2.9667380000     0.8321690000     0.8940640000
| 15>  C        4.3841380000     0.5427380000     0.5599160000
| 16>  C        5.2913770000     1.4865400000     0.3134870000
| 17>  C        6.6487680000     1.1882900000     0.0143060000
| 18>  N        7.7552250000     0.9746620000    -0.2256970000
| 19>  H        0.9079010000     0.2476310000     0.3398180000
| 20>  H        2.7752660000     0.6290420000     1.9594320000
| 21>  H        2.7150430000     1.8888100000     0.7519220000
| 22>  H        4.6732900000    -0.5022840000     0.5151130000
| 23>  H        5.0306920000     2.5406990000     0.3326370000
| 24> *
| 25>
| 26>                          ****END OF INPUT****
 Total Charge           Charge          ....    0
 Multiplicity           Mult            ....    1
 Number of Electrons    NEL             ....   50
 Basis Dimension        Dim             ....  123

MULLIKEN ATOMIC CHARGES
-----------------------
   0 O :   -0.141475
   1 C :    0.077700
   2 C :    0.031997
   3 C :   -0.019279
   4 C :   -0.100858
   5 C :   -0.102934
   6 N :    0.045927
   7 H :    0.004321
   8 H :    0.071683
   9 H :    0.045852
  10 H :    0.041960
  11 H :    0.045106
Sum of atomic charges:    0.0000000

LOEWDIN ATOMIC CHARGES
----------------------
   0 O :   -0.093344
   1 C :    0.097097
   2 C :   -0.084533
   3 C :    0.032926
   4 C :   -0.068785
   5 C :   -0.041633
   6 N :   -0.049852
   7 H :   -0.005830
   8 H :    0.068521
   9 H :    0.052184
  10 H :    0.043853
  11 H :    0.049396

  Mayer bond orders larger than 0.1
B(  0-O ,  1-C ) :   2.2122 B(  1-C ,  2-C ) :   0.9392 B(  1-C ,  7-H ) :   0.9294
B(  2-C ,  3-C ) :   1.0397 B(  2-C ,  8-H ) :   0.8836 B(  2-C ,  9-H ) :   0.9094
B(  3-C ,  4-C ) :   1.8401 B(  3-C ,  6-N ) :   0.1092 B(  3-C , 10-H ) :   0.9612
B(  4-C ,  5-C ) :   1.1283 B(  4-C , 11-H ) :   0.9436 B(  5-C ,  6-N ) :   2.9661

FINAL SINGLE POINT ENERGY      -322.833787364031

DIPOLE MOMENT
-------------
                                X             Y             Z
Electronic contribution:      3.81104      -1.13378      -2.01050
Nuclear contribution   :     -5.44201       1.88582       2.95787
                        -----------------------------------------
Total Dipole Moment    :     -1.63097       0.75205       0.94737
                        -----------------------------------------
Magnitude (a.u.)       :      2.03055
Magnitude (Debye)      :      5.16126

                             ****ORCA TERMINATED NORMALLY****
TOTAL RUN TIME: 0 days 0 hours 0 minutes 6 seconds 119 msec
