                         Program Version 3.0.3 - RELEASE   -
|  1> ! RI PBE def2-SVP def2-SVP/J NBO PAL2
|  2> % maxcore 2000
|  3> % output
|  4>     # printlevel mini
|  5>     print[ P_Basis ] 0
|  6>     print[ P_SCFInfo ] 1
|  7>     print[ P_SCFIterInfo ] 1
|  8>     print[ P_OrbEn ] 0
|  9>     print[ P_Cartesian ] 0
| 10> end
| 11> *xyz 0 1
| 12>  O        1.2323810000    -0.2888910000    -0.5010160000
| 13>  C        2.2700320000     0.0139970000     0.0047570000
| 14>  C        3.0883710000    -0.9619180000     0.8446650000
| 15>  C        4.5117030000    -0.7727700000     0.6991330000
| 16>  C        5.6917740000    -0.5847520000     0.5440900000
| 17>  C        7.0338140000    -0.3821150000     0.3792840000
| 18>  N        8.1672680000    -0.2090840000     0.2401050000
| 19>  H        2.6948770000     1.0335870000    -0.0851600000
| 20>  H        2.7888830000    -1.9811760000     0.5874160000
| 21>  H        2.8023960000    -0.7930770000     1.8921260000
| 22> *
| 23>
| 24>                          ****END OF INPUT****
 Total Charge           Charge          ....    0
 Multiplicity           Mult            ....    1
 Number of Electrons    NEL             ....   48
 Basis Dimension        Dim             ....  113

MULLIKEN ATOMIC CHARGES
-----------------------
   0 O :   -0.130044
   1 C :    0.079413
   2 C :    0.083355
   3 C :   -0.210664
   4 C :    0.061599
   5 C :   -0.175366
   6 N :    0.109591
   7 H :    0.023206
   8 H :    0.070566
   9 H :    0.088344
Sum of atomic charges:    0.0000000

LOEWDIN ATOMIC CHARGES
----------------------
   0 O :   -0.073231
   1 C :    0.110147
   2 C :   -0.080331
   3 C :    0.030495
   4 C :   -0.075677
   5 C :   -0.047754
   6 N :   -0.018443
   7 H :    0.002098
   8 H :    0.070335
   9 H :    0.082359

  Mayer bond orders larger than 0.1
B(  0-O ,  1-C ) :   2.2028 B(  1-C ,  2-C ) :   0.9138 B(  1-C ,  7-H ) :   0.9304
B(  2-C ,  3-C ) :   1.0446 B(  2-C ,  8-H ) :   0.8827 B(  2-C ,  9-H ) :   0.8792
B(  3-C ,  4-C ) :   2.3626 B(  3-C ,  6-N ) :   0.1836 B(  4-C ,  5-C ) :   1.0074
B(  4-C ,  6-N ) :   0.1206 B(  5-C ,  6-N ) :   2.8715

FINAL SINGLE POINT ENERGY      -321.593516681899

DIPOLE MOMENT
-------------
                                X             Y             Z
Electronic contribution:      3.66269       0.23885      -0.78951
Nuclear contribution   :     -4.76684      -0.37203       1.40426
                        -----------------------------------------
Total Dipole Moment    :     -1.10415      -0.13317       0.61475
                        -----------------------------------------
Magnitude (a.u.)       :      1.27075
Magnitude (Debye)      :      3.22998

                             ****ORCA TERMINATED NORMALLY****
TOTAL RUN TIME: 0 days 0 hours 0 minutes 4 seconds 905 msec
