                         Program Version 3.0.3 - RELEASE   -
|  1> ! RI PBE def2-SVP def2-SVP/J NBO PAL2
|  2> % maxcore 2000
|  3> % output
|  4>     # printlevel mini
|  5>     print[ P_Basis ] 0
|  6>     print[ P_SCFInfo ] 1
|  7>     print[ P_SCFIterInfo ] 1
|  8>     print[ P_OrbEn ] 0
|  9>     print[ P_Cartesian ] 0
| 10> end
| 11> *xyz 0 1
| 12>  O        3.4262840000    -3.5322930000    -1.2383120000
| 13>  C        2.6506360000    -2.6662580000    -1.5419690000
| 14>  C        2.9778370000    -1.2032300000    -1.5814760000
| 15>  C        4.4180910000    -0.8663240000    -1.2442260000
| 16>  C        5.4202100000    -1.3187820000    -2.3106900000
| 17>  C        5.1616570000    -0.7095960000    -3.6061110000
| 18>  N        4.9249800000    -0.2175350000    -4.6182790000
| 19>  H        1.6028660000    -2.9185600000    -1.8113770000
| 20>  H        2.2864190000    -0.7113870000    -0.8849480000
| 21>  H        2.6918290000    -0.8231290000    -2.5713420000
| 22>  H        4.6948990000    -1.3509920000    -0.3053010000
| 23>  H        4.5123350000     0.2119390000    -1.0973930000
| 24>  H        5.3850940000    -2.4051900000    -2.4223250000
| 25>  H        6.4374740000    -1.0580730000    -2.0068400000
| 26> *
| 27>
| 28>                          ****END OF INPUT****
 Total Charge           Charge          ....    0
 Multiplicity           Mult            ....    1
 Number of Electrons    NEL             ....   52
 Basis Dimension        Dim             ....  133

MULLIKEN ATOMIC CHARGES
-----------------------
   0 O :   -0.166537
   1 C :    0.085026
   2 C :   -0.030163
   3 C :   -0.015069
   4 C :    0.065092
   5 C :   -0.289289
   6 N :    0.040500
   7 H :    0.003609
   8 H :    0.051412
   9 H :    0.057695
  10 H :    0.035091
  11 H :    0.035902
  12 H :    0.073880
  13 H :    0.052852
Sum of atomic charges:   -0.0000000

LOEWDIN ATOMIC CHARGES
----------------------
   0 O :   -0.110583
   1 C :    0.097856
   2 C :   -0.085015
   3 C :   -0.024287
   4 C :   -0.056769
   5 C :   -0.047822
   6 N :   -0.071301
   7 H :   -0.005380
   8 H :    0.055784
   9 H :    0.053013
  10 H :    0.037389
  11 H :    0.036577
  12 H :    0.059937
  13 H :    0.060600

  Mayer bond orders larger than 0.1
B(  0-O ,  1-C ) :   2.1544 B(  1-C ,  2-C ) :   0.9746 B(  1-C ,  7-H ) :   0.9277
B(  2-C ,  3-C ) :   1.0929 B(  2-C ,  8-H ) :   0.9022 B(  2-C ,  9-H ) :   0.9023
B(  3-C ,  4-C ) :   1.0889 B(  3-C , 10-H ) :   0.9261 B(  3-C , 11-H ) :   0.9319
B(  4-C ,  5-C ) :   1.1095 B(  4-C , 12-H ) :   0.8971 B(  4-C , 13-H ) :   0.8870
B(  5-C ,  6-N ) :   3.0366

FINAL SINGLE POINT ENERGY      -324.055429486406

DIPOLE MOMENT
-------------
                                X             Y             Z
Electronic contribution:      0.81096      -1.43494      -3.26256
Nuclear contribution   :     -1.11003       1.62107       4.41249
                        -----------------------------------------
Total Dipole Moment    :     -0.29907       0.18614       1.14993
                        -----------------------------------------
Magnitude (a.u.)       :      1.20267
Magnitude (Debye)      :      3.05696

                             ****ORCA TERMINATED NORMALLY****
TOTAL RUN TIME: 0 days 0 hours 0 minutes 7 seconds 66 msec
