                         Program Version 3.0.3 - RELEASE   -
|  1> ! RI PBE def2-SVP def2-SVP/J NBO PAL2
|  2> % maxcore 2000
|  3> % output
|  4>     # printlevel mini
|  5>     print[ P_Basis ] 0
|  6>     print[ P_SCFInfo ] 1
|  7>     print[ P_SCFIterInfo ] 1
|  8>     print[ P_OrbEn ] 0
|  9>     print[ P_Cartesian ] 0
| 10> end
| 11> *xyz 0 1
| 12>  O        0.8504310000    -0.2193940000    -0.4964300000
| 13>  C        2.2222540000    -0.1963810000    -0.2041180000
| 14>  C        2.6604640000     1.1415630000     0.4136970000
| 15>  C        2.3980220000     2.2575190000    -0.5418570000
| 16>  C        1.4252470000     3.1498440000    -0.4016600000
| 17>  C        2.5141490000    -1.2963990000     0.7185190000
| 18>  N        2.7908640000    -2.1398510000     1.4475260000
| 19>  H        0.6325820000     0.6411100000    -0.8768670000
| 20>  H        2.8184650000    -0.3802170000    -1.1114020000
| 21>  H        3.7249830000     1.0802180000     0.6584930000
| 22>  H        2.1062190000     1.2891670000     1.3436980000
| 23>  H        3.0370520000     2.3022890000    -1.4222470000
| 24>  H        0.7729880000     3.1436160000     0.4664490000
| 25>  H        1.2615680000     3.9302060000    -1.1357190000
| 26> *
| 27>
| 28>                          ****END OF INPUT****
 Total Charge           Charge          ....    0
 Multiplicity           Mult            ....    1
 Number of Electrons    NEL             ....   52
 Basis Dimension        Dim             ....  133

MULLIKEN ATOMIC CHARGES
-----------------------
   0 O :   -0.233299
   1 C :    0.077954
   2 C :    0.042789
   3 C :   -0.105827
   4 C :   -0.028252
   5 C :   -0.180057
   6 N :    0.060082
   7 H :    0.157159
   8 H :    0.033649
   9 H :    0.041165
  10 H :    0.032820
  11 H :    0.020835
  12 H :    0.039319
  13 H :    0.041663
Sum of atomic charges:    0.0000000

LOEWDIN ATOMIC CHARGES
----------------------
   0 O :   -0.091231
   1 C :    0.029267
   2 C :   -0.040089
   3 C :   -0.039410
   4 C :   -0.049564
   5 C :   -0.040213
   6 N :   -0.049066
   7 H :    0.067144
   8 H :    0.033595
   9 H :    0.047042
  10 H :    0.040130
  11 H :    0.031341
  12 H :    0.029272
  13 H :    0.031783

  Mayer bond orders larger than 0.1
B(  0-O ,  1-C ) :   1.1786 B(  0-O ,  7-H ) :   0.9583 B(  1-C ,  2-C ) :   1.0555
B(  1-C ,  5-C ) :   1.0555 B(  1-C ,  8-H ) :   0.8808 B(  2-C ,  3-C ) :   1.0802
B(  2-C ,  9-H ) :   0.8979 B(  2-C , 10-H ) :   0.9153 B(  3-C ,  4-C ) :   1.9751
B(  3-C , 11-H ) :   0.9517 B(  4-C , 12-H ) :   0.9487 B(  4-C , 13-H ) :   0.9456
B(  5-C ,  6-N ) :   3.0790

FINAL SINGLE POINT ENERGY      -324.021896720290

DIPOLE MOMENT
-------------
                                X             Y             Z
Electronic contribution:      0.28259      -6.91189       1.74934
Nuclear contribution   :     -0.20279       8.58002      -2.63047
                        -----------------------------------------
Total Dipole Moment    :      0.07980       1.66813      -0.88114
                        -----------------------------------------
Magnitude (a.u.)       :      1.88823
Magnitude (Debye)      :      4.79950

                             ****ORCA TERMINATED NORMALLY****
TOTAL RUN TIME: 0 days 0 hours 0 minutes 5 seconds 699 msec
