                         Program Version 3.0.3 - RELEASE   -
|  1> ! RI PBE def2-SVP def2-SVP/J NBO PAL2
|  2> % maxcore 2000
|  3> % output
|  4>     # printlevel mini
|  5>     print[ P_Basis ] 0
|  6>     print[ P_SCFInfo ] 1
|  7>     print[ P_SCFIterInfo ] 1
|  8>     print[ P_OrbEn ] 0
|  9>     print[ P_Cartesian ] 0
| 10> end
| 11> *xyz 0 1
| 12>  O        0.9735180000    -0.0134500000     0.0666660000
| 13>  C        2.3718210000     0.1300010000     0.0895710000
| 14>  C        2.8374770000     0.9117890000     1.3311460000
| 15>  C        4.2664780000     1.1573970000     1.3422180000
| 16>  C        5.4495220000     1.3524050000     1.3186840000
| 17>  C        2.9542820000    -1.2150640000     0.0711290000
| 18>  N        3.4249600000    -2.2623070000     0.0630340000
| 19>  H        0.5881560000     0.8157250000    -0.2289890000
| 20>  H        2.7393680000     0.6447730000    -0.8077620000
| 21>  H        2.5305610000     0.3605290000     2.2241650000
| 22>  H        2.2972780000     1.8643650000     1.3379120000
| 23>  H        6.5012780000     1.5169280000     1.3086260000
| 24> *
| 25>
| 26>                          ****END OF INPUT****
 Total Charge           Charge          ....    0
 Multiplicity           Mult            ....    1
 Number of Electrons    NEL             ....   50
 Basis Dimension        Dim             ....  123

MULLIKEN ATOMIC CHARGES
-----------------------
   0 O :   -0.228877
   1 C :    0.055670
   2 C :    0.111988
   3 C :    0.313746
   4 C :   -0.463778
   5 C :   -0.169984
   6 N :    0.056358
   7 H :    0.169324
   8 H :    0.053219
   9 H :    0.059100
  10 H :    0.035717
  11 H :    0.007519
Sum of atomic charges:    0.0000000

LOEWDIN ATOMIC CHARGES
----------------------
   0 O :   -0.084063
   1 C :    0.034375
   2 C :   -0.045707
   3 C :   -0.033166
   4 C :   -0.060567
   5 C :   -0.038400
   6 N :   -0.040043
   7 H :    0.079935
   8 H :    0.040962
   9 H :    0.058137
  10 H :    0.049704
  11 H :    0.038835

  Mayer bond orders larger than 0.1
B(  0-O ,  1-C ) :   1.1752 B(  0-O ,  7-H ) :   0.9743 B(  1-C ,  2-C ) :   1.0431
B(  1-C ,  5-C ) :   1.0235 B(  1-C ,  8-H ) :   0.9063 B(  2-C ,  3-C ) :   1.0158
B(  2-C ,  9-H ) :   0.8928 B(  2-C , 10-H ) :   0.8879 B(  3-C ,  4-C ) :   2.3562
B(  3-C , 11-H ) :  -0.1102 B(  4-C , 11-H ) :   1.1013 B(  5-C ,  6-N ) :   3.0835

FINAL SINGLE POINT ENERGY      -322.774048597360

DIPOLE MOMENT
-------------
                                X             Y             Z
Electronic contribution:      0.26632      -3.07934      -0.94558
Nuclear contribution   :     -0.73474       4.79845       0.83931
                        -----------------------------------------
Total Dipole Moment    :     -0.46841       1.71911      -0.10627
                        -----------------------------------------
Magnitude (a.u.)       :      1.78495
Magnitude (Debye)      :      4.53699

                             ****ORCA TERMINATED NORMALLY****
TOTAL RUN TIME: 0 days 0 hours 0 minutes 5 seconds 460 msec
