                         Program Version 3.0.3 - RELEASE   -
|  1> ! RI PBE def2-SVP def2-SVP/J NBO PAL2
|  2> % maxcore 2000
|  3> % output
|  4>     # printlevel mini
|  5>     print[ P_Basis ] 0
|  6>     print[ P_SCFInfo ] 1
|  7>     print[ P_SCFIterInfo ] 1
|  8>     print[ P_OrbEn ] 0
|  9>     print[ P_Cartesian ] 0
| 10> end
| 11> *xyz 0 1
| 12>  O        2.2464730000     0.6205330000     1.4875920000
| 13>  C        2.6281400000     0.3722210000     0.1480730000
| 14>  C        2.9000900000    -1.0833760000    -0.0001770000
| 15>  C        4.0193260000    -1.5839710000    -0.5002830000
| 16>  C        4.2758930000    -3.0544780000    -0.6603750000
| 17>  C        4.5727420000    -3.4197190000    -2.0403470000
| 18>  N        4.8118530000    -3.6941040000    -3.1306500000
| 19>  H        1.9010280000     1.5142840000     1.5455220000
| 20>  H        3.5190640000     0.9497370000    -0.1318240000
| 21>  H        1.8185350000     0.6530620000    -0.5419600000
| 22>  H        2.1007610000    -1.7455770000     0.3267880000
| 23>  H        4.8194230000    -0.9206490000    -0.8192410000
| 24>  H        3.4129350000    -3.6347790000    -0.3238170000
| 25>  H        5.1310650000    -3.3619020000    -0.0473910000
| 26> *
| 27>
| 28>                          ****END OF INPUT****
 Total Charge           Charge          ....    0
 Multiplicity           Mult            ....    1
 Number of Electrons    NEL             ....   52
 Basis Dimension        Dim             ....  133

MULLIKEN ATOMIC CHARGES
-----------------------
   0 O :   -0.284126
   1 C :    0.200100
   2 C :   -0.062721
   3 C :   -0.069260
   4 C :    0.124191
   5 C :   -0.276264
   6 N :    0.040613
   7 H :    0.157365
   8 H :   -0.002650
   9 H :    0.019527
  10 H :    0.010543
  11 H :    0.018486
  12 H :    0.054192
  13 H :    0.070006
Sum of atomic charges:   -0.0000000

LOEWDIN ATOMIC CHARGES
----------------------
   0 O :   -0.128450
   1 C :    0.058591
   2 C :   -0.032004
   3 C :   -0.026631
   4 C :   -0.053231
   5 C :   -0.043529
   6 N :   -0.065374
   7 H :    0.071956
   8 H :    0.009463
   9 H :    0.018124
  10 H :    0.029781
  11 H :    0.031399
  12 H :    0.062150
  13 H :    0.067756

  Mayer bond orders larger than 0.1
B(  0-O ,  1-C ) :   1.0740 B(  0-O ,  7-H ) :   0.9784 B(  1-C ,  2-C ) :   1.0558
B(  1-C ,  8-H ) :   0.9305 B(  1-C ,  9-H ) :   0.9154 B(  2-C ,  3-C ) :   1.9259
B(  2-C , 10-H ) :   0.9502 B(  3-C ,  4-C ) :   1.0443 B(  3-C , 11-H ) :   0.9498
B(  4-C ,  5-C ) :   1.0798 B(  4-C , 12-H ) :   0.8958 B(  4-C , 13-H ) :   0.8910
B(  5-C ,  6-N ) :   3.0608

FINAL SINGLE POINT ENERGY      -324.022958222352

DIPOLE MOMENT
-------------
                                X             Y             Z
Electronic contribution:      1.72674      -3.35588      -2.85262
Nuclear contribution   :     -2.19070       4.27615       3.85928
                        -----------------------------------------
Total Dipole Moment    :     -0.46396       0.92027       1.00666
                        -----------------------------------------
Magnitude (a.u.)       :      1.44066
Magnitude (Debye)      :      3.66188

                             ****ORCA TERMINATED NORMALLY****
TOTAL RUN TIME: 0 days 0 hours 0 minutes 6 seconds 112 msec
