                         Program Version 3.0.3 - RELEASE   -
|  1> ! RI PBE def2-SVP def2-SVP/J NBO PAL2
|  2> % maxcore 2000
|  3> % output
|  4>     # printlevel mini
|  5>     print[ P_Basis ] 0
|  6>     print[ P_SCFInfo ] 1
|  7>     print[ P_SCFIterInfo ] 1
|  8>     print[ P_OrbEn ] 0
|  9>     print[ P_Cartesian ] 0
| 10> end
| 11> *xyz 0 1
| 12>  O        3.1968010000     1.1118530000    -1.1794050000
| 13>  C        2.4866410000     0.4834540000    -0.1285990000
| 14>  C        2.9418390000    -0.9381640000    -0.0165890000
| 15>  C        2.0874740000    -1.9505080000     0.0195760000
| 16>  C        4.4381130000    -1.0967500000     0.0749130000
| 17>  C        4.8864090000    -2.4679900000     0.2332440000
| 18>  N        5.2357590000    -3.5554450000     0.3613390000
| 19>  H        3.0317410000     2.0564420000    -1.1419910000
| 20>  H        1.4049150000     0.5044680000    -0.3043750000
| 21>  H        2.6836810000     0.9965330000     0.8256080000
| 22>  H        1.0213330000    -1.7779830000    -0.0726790000
| 23>  H        2.4190050000    -2.9748800000     0.1452100000
| 24>  H        4.8250510000    -0.5071790000     0.9148990000
| 25>  H        4.8989270000    -0.6730510000    -0.8229500000
| 26> *
| 27>
| 28>                          ****END OF INPUT****
 Total Charge           Charge          ....    0
 Multiplicity           Mult            ....    1
 Number of Electrons    NEL             ....   52
 Basis Dimension        Dim             ....  133

MULLIKEN ATOMIC CHARGES
-----------------------
   0 O :   -0.279799
   1 C :    0.221475
   2 C :   -0.264288
   3 C :    0.009993
   4 C :    0.216928
   5 C :   -0.313450
   6 N :    0.057841
   7 H :    0.161297
   8 H :    0.005670
   9 H :    0.013015
  10 H :    0.017019
  11 H :    0.037093
  12 H :    0.048797
  13 H :    0.068408
Sum of atomic charges:   -0.0000000

LOEWDIN ATOMIC CHARGES
----------------------
   0 O :   -0.123269
   1 C :    0.065602
   2 C :   -0.040001
   3 C :   -0.046859
   4 C :   -0.051592
   5 C :   -0.037164
   6 N :   -0.066957
   7 H :    0.074973
   8 H :    0.014065
   9 H :    0.015035
  10 H :    0.027548
  11 H :    0.033213
  12 H :    0.065253
  13 H :    0.070153

  Mayer bond orders larger than 0.1
B(  0-O ,  1-C ) :   1.0793 B(  0-O ,  7-H ) :   0.9760 B(  1-C ,  2-C ) :   1.0587
B(  1-C ,  8-H ) :   0.9266 B(  1-C ,  9-H ) :   0.9128 B(  2-C ,  3-C ) :   2.0193
B(  2-C ,  4-C ) :   0.9844 B(  3-C , 10-H ) :   0.9271 B(  3-C , 11-H ) :   0.9151
B(  4-C ,  5-C ) :   1.1246 B(  4-C , 12-H ) :   0.8671 B(  4-C , 13-H ) :   0.8515
B(  5-C ,  6-N ) :   3.0225

FINAL SINGLE POINT ENERGY      -324.026032836149

DIPOLE MOMENT
-------------
                                X             Y             Z
Electronic contribution:      3.65824      -3.14924      -0.23342
Nuclear contribution   :     -4.44424       4.96578       0.37556
                        -----------------------------------------
Total Dipole Moment    :     -0.78600       1.81654       0.14214
                        -----------------------------------------
Magnitude (a.u.)       :      1.98440
Magnitude (Debye)      :      5.04393

                             ****ORCA TERMINATED NORMALLY****
TOTAL RUN TIME: 0 days 0 hours 0 minutes 6 seconds 307 msec
