                         Program Version 3.0.3 - RELEASE   -
|  1> ! RI PBE def2-SVP def2-SVP/J NBO PAL2
|  2> % maxcore 2000
|  3> % output
|  4>     # printlevel mini
|  5>     print[ P_Basis ] 0
|  6>     print[ P_SCFInfo ] 1
|  7>     print[ P_SCFIterInfo ] 1
|  8>     print[ P_OrbEn ] 0
|  9>     print[ P_Cartesian ] 0
| 10> end
| 11> *xyz 0 1
| 12>  O        1.1134490000     0.1001580000     0.2163790000
| 13>  C        2.5047330000     0.0328070000     0.0382190000
| 14>  C        3.0241160000    -1.0739400000     0.9631670000
| 15>  C        2.5500750000    -2.4414570000     0.5539690000
| 16>  C        1.7312070000    -3.1839890000     1.2790250000
| 17>  C        4.4838510000    -1.0227650000     0.9878100000
| 18>  N        5.6326400000    -0.9776560000     0.9819140000
| 19>  H        0.7516600000     0.7344070000    -0.4063580000
| 20>  H        2.9953050000     0.9768070000     0.3068480000
| 21>  H        2.7758920000    -0.2092220000    -0.9978550000
| 22>  H        2.6641970000    -0.8537970000     1.9740460000
| 23>  H        2.9170180000    -2.7988890000    -0.4049510000
| 24>  H        1.3538330000    -2.8444800000     2.2379110000
| 25>  H        1.4032940000    -4.1577440000     0.9355950000
| 26> *
| 27>
| 28>                          ****END OF INPUT****
 Total Charge           Charge          ....    0
 Multiplicity           Mult            ....    1
 Number of Electrons    NEL             ....   52
 Basis Dimension        Dim             ....  133

MULLIKEN ATOMIC CHARGES
-----------------------
   0 O :   -0.257657
   1 C :    0.182273
   2 C :   -0.067325
   3 C :   -0.018235
   4 C :   -0.005455
   5 C :   -0.215763
   6 N :    0.058748
   7 H :    0.163392
   8 H :    0.022599
   9 H :    0.013106
  10 H :    0.046501
  11 H :    0.015600
  12 H :    0.027977
  13 H :    0.034240
Sum of atomic charges:   -0.0000000

LOEWDIN ATOMIC CHARGES
----------------------
   0 O :   -0.115332
   1 C :    0.075504
   2 C :   -0.068322
   3 C :   -0.014143
   4 C :   -0.034948
   5 C :   -0.033929
   6 N :   -0.063431
   7 H :    0.078763
   8 H :    0.013288
   9 H :    0.011332
  10 H :    0.059958
  11 H :    0.032062
  12 H :    0.027933
  13 H :    0.031266

  Mayer bond orders larger than 0.1
B(  0-O ,  1-C ) :   1.1350 B(  0-O ,  7-H ) :   0.9750 B(  1-C ,  2-C ) :   1.0444
B(  1-C ,  8-H ) :   0.9351 B(  1-C ,  9-H ) :   0.9256 B(  2-C ,  3-C ) :   1.0042
B(  2-C ,  5-C ) :   1.0053 B(  2-C , 10-H ) :   0.8716 B(  3-C ,  4-C ) :   2.0275
B(  3-C , 11-H ) :   0.9509 B(  4-C , 12-H ) :   0.9445 B(  4-C , 13-H ) :   0.9422
B(  5-C ,  6-N ) :   3.0793

FINAL SINGLE POINT ENERGY      -324.019356620926

DIPOLE MOMENT
-------------
                                X             Y             Z
Electronic contribution:      3.90830       1.20334       0.62509
Nuclear contribution   :     -5.23170      -0.88032      -1.10250
                        -----------------------------------------
Total Dipole Moment    :     -1.32340       0.32302      -0.47741
                        -----------------------------------------
Magnitude (a.u.)       :      1.44348
Magnitude (Debye)      :      3.66905

                             ****ORCA TERMINATED NORMALLY****
TOTAL RUN TIME: 0 days 0 hours 0 minutes 6 seconds 96 msec
