                         Program Version 3.0.3 - RELEASE   -
|  1> ! RI PBE def2-SVP def2-SVP/J NBO PAL2
|  2> % maxcore 2000
|  3> % output
|  4>     # printlevel mini
|  5>     print[ P_Basis ] 0
|  6>     print[ P_SCFInfo ] 1
|  7>     print[ P_SCFIterInfo ] 1
|  8>     print[ P_OrbEn ] 0
|  9>     print[ P_Cartesian ] 0
| 10> end
| 11> *xyz 0 1
| 12>  O        2.4649270000    -0.3556320000     1.2729250000
| 13>  C        2.1649470000     0.0557170000    -0.0256980000
| 14>  C        2.8068230000    -0.8719000000    -1.0889930000
| 15>  C        2.4110370000    -0.4909050000    -2.4373180000
| 16>  C        2.0488870000    -0.1495750000    -3.5271880000
| 17>  C        4.2599540000    -0.8570170000    -0.9193180000
| 18>  N        5.3895480000    -0.8159030000    -0.7114190000
| 19>  H        3.3916520000    -0.1721430000     1.4572910000
| 20>  H        2.4753990000     1.0871770000    -0.2259420000
| 21>  H        1.0826590000    -0.0063230000    -0.1451540000
| 22>  H        2.4667090000    -1.8932810000    -0.8800720000
| 23>  H        1.7359090000     0.1455240000    -4.5013050000
| 24> *
| 25>
| 26>                          ****END OF INPUT****
 Total Charge           Charge          ....    0
 Multiplicity           Mult            ....    1
 Number of Electrons    NEL             ....   50
 Basis Dimension        Dim             ....  123

MULLIKEN ATOMIC CHARGES
-----------------------
   0 O :   -0.260558
   1 C :    0.176770
   2 C :    0.006707
   3 C :    0.392975
   4 C :   -0.477166
   5 C :   -0.227475
   6 N :    0.056267
   7 H :    0.171224
   8 H :    0.032149
   9 H :    0.044109
  10 H :    0.072560
  11 H :    0.012438
Sum of atomic charges:   -0.0000000

LOEWDIN ATOMIC CHARGES
----------------------
   0 O :   -0.098089
   1 C :    0.081286
   2 C :   -0.082625
   3 C :   -0.017567
   4 C :   -0.045628
   5 C :   -0.032776
   6 N :   -0.054570
   7 H :    0.078430
   8 H :    0.018750
   9 H :    0.033601
  10 H :    0.076813
  11 H :    0.042376

  Mayer bond orders larger than 0.1
B(  0-O ,  1-C ) :   1.1066 B(  0-O ,  7-H ) :   0.9740 B(  1-C ,  2-C ) :   1.0019
B(  1-C ,  8-H ) :   0.9324 B(  1-C ,  9-H ) :   0.9416 B(  2-C ,  3-C ) :   0.9625
B(  2-C ,  5-C ) :   1.0134 B(  2-C , 10-H ) :   0.8385 B(  3-C ,  4-C ) :   2.3482
B(  3-C , 11-H ) :  -0.1146 B(  4-C , 11-H ) :   1.1042 B(  5-C ,  6-N ) :   3.0613

FINAL SINGLE POINT ENERGY      -322.774909874639

DIPOLE MOMENT
-------------
                                X             Y             Z
Electronic contribution:      2.92447      -1.22537      -0.75371
Nuclear contribution   :     -3.86793       1.46964       0.44370
                        -----------------------------------------
Total Dipole Moment    :     -0.94346       0.24427      -0.31001
                        -----------------------------------------
Magnitude (a.u.)       :      1.02269
Magnitude (Debye)      :      2.59947

                             ****ORCA TERMINATED NORMALLY****
TOTAL RUN TIME: 0 days 0 hours 0 minutes 5 seconds 466 msec
