                         Program Version 3.0.3 - RELEASE   -
|  1> ! RI PBE def2-SVP def2-SVP/J NBO PAL2
|  2> % maxcore 2000
|  3> % output
|  4>     # printlevel mini
|  5>     print[ P_Basis ] 0
|  6>     print[ P_SCFInfo ] 1
|  7>     print[ P_SCFIterInfo ] 1
|  8>     print[ P_OrbEn ] 0
|  9>     print[ P_Cartesian ] 0
| 10> end
| 11> *xyz 0 1
| 12>  O        0.9430440000     0.0501830000    -0.1342760000
| 13>  C        2.3524120000     0.1042740000    -0.0627260000
| 14>  C        2.8504050000    -1.0516360000     0.6637440000
| 15>  C        3.2835570000    -2.0013160000     1.2541440000
| 16>  C        3.7873900000    -3.1573000000     1.9802930000
| 17>  C        4.7268090000    -3.9609380000     1.2015560000
| 18>  N        5.4701960000    -4.6020890000     0.6056670000
| 19>  H        0.6446770000     0.8099260000    -0.6409470000
| 20>  H        2.6925510000     1.0145920000     0.4507120000
| 21>  H        2.8061400000     0.1031280000    -1.0636590000
| 22>  H        2.9536050000    -3.8014520000     2.2804230000
| 23>  H        4.2888120000    -2.8446710000     2.9026690000
| 24> *
| 25>
| 26>                          ****END OF INPUT****
 Total Charge           Charge          ....    0
 Multiplicity           Mult            ....    1
 Number of Electrons    NEL             ....   50
 Basis Dimension        Dim             ....  123

MULLIKEN ATOMIC CHARGES
-----------------------
   0 O :   -0.265045
   1 C :    0.213651
   2 C :   -0.118117
   3 C :   -0.159170
   4 C :    0.182055
   5 C :   -0.270682
   6 N :    0.046220
   7 H :    0.158673
   8 H :    0.023244
   9 H :    0.030075
  10 H :    0.081395
  11 H :    0.077703
Sum of atomic charges:    0.0000000

LOEWDIN ATOMIC CHARGES
----------------------
   0 O :   -0.118899
   1 C :    0.051746
   2 C :   -0.035202
   3 C :   -0.049805
   4 C :   -0.053142
   5 C :   -0.035086
   6 N :   -0.053596
   7 H :    0.073457
   8 H :    0.028084
   9 H :    0.031368
  10 H :    0.082559
  11 H :    0.078514

  Mayer bond orders larger than 0.1
B(  0-O ,  1-C ) :   1.1429 B(  0-O ,  7-H ) :   0.9770 B(  1-C ,  2-C ) :   1.0330
B(  1-C ,  8-H ) :   0.9086 B(  1-C ,  9-H ) :   0.9071 B(  2-C ,  3-C ) :   2.7408
B(  3-C ,  4-C ) :   1.0414 B(  4-C ,  5-C ) :   1.0668 B(  4-C , 10-H ) :   0.8655
B(  4-C , 11-H ) :   0.8729 B(  5-C ,  6-N ) :   3.0669

FINAL SINGLE POINT ENERGY      -322.776801302470

DIPOLE MOMENT
-------------
                                X             Y             Z
Electronic contribution:      2.06305      -3.61264       0.21393
Nuclear contribution   :     -2.72475       4.92772       0.18052
                        -----------------------------------------
Total Dipole Moment    :     -0.66170       1.31508       0.39445
                        -----------------------------------------
Magnitude (a.u.)       :      1.52410
Magnitude (Debye)      :      3.87395

                             ****ORCA TERMINATED NORMALLY****
TOTAL RUN TIME: 0 days 0 hours 0 minutes 5 seconds 741 msec
