                         Program Version 3.0.3 - RELEASE   -
|  1> ! RI PBE def2-SVP def2-SVP/J NBO PAL2
|  2> % maxcore 2000
|  3> % output
|  4>     # printlevel mini
|  5>     print[ P_Basis ] 0
|  6>     print[ P_SCFInfo ] 1
|  7>     print[ P_SCFIterInfo ] 1
|  8>     print[ P_OrbEn ] 0
|  9>     print[ P_Cartesian ] 0
| 10> end
| 11> *xyz 0 1
| 12>  O        2.7780100000    -0.7509920000     1.1272170000
| 13>  C        2.2910190000     0.0884320000     0.1023960000
| 14>  C        2.8237190000    -0.4346390000    -1.2209350000
| 15>  C        4.3072480000    -0.3789140000    -1.3026200000
| 16>  C        4.9803300000     0.2130760000    -2.2902530000
| 17>  C        6.4005630000     0.2497980000    -2.3387550000
| 18>  N        7.5506960000     0.2942150000    -2.3996430000
| 19>  H        2.5205880000    -0.3889270000     1.9776770000
| 20>  H        2.6191720000     1.1261280000     0.2493490000
| 21>  H        1.1934250000     0.0813490000     0.0723710000
| 22>  H        2.3711910000     0.1269690000    -2.0426580000
| 23>  H        2.5006080000    -1.4785200000    -1.3162440000
| 24>  H        4.8555020000    -0.8519730000    -0.4933980000
| 25>  H        4.4637270000     0.6974070000    -3.1138130000
| 26> *
| 27>
| 28>                          ****END OF INPUT****
 Total Charge           Charge          ....    0
 Multiplicity           Mult            ....    1
 Number of Electrons    NEL             ....   52
 Basis Dimension        Dim             ....  133

MULLIKEN ATOMIC CHARGES
-----------------------
   0 O :   -0.279664
   1 C :    0.121560
   2 C :    0.038876
   3 C :   -0.030047
   4 C :   -0.111369
   5 C :   -0.103675
   6 N :    0.034856
   7 H :    0.161285
   8 H :    0.010851
   9 H :    0.017935
  10 H :    0.016957
  11 H :    0.045226
  12 H :    0.035533
  13 H :    0.041675
Sum of atomic charges:   -0.0000000

LOEWDIN ATOMIC CHARGES
----------------------
   0 O :   -0.126432
   1 C :    0.062274
   2 C :   -0.050068
   3 C :    0.034462
   4 C :   -0.082845
   5 C :   -0.042693
   6 N :   -0.061668
   7 H :    0.076142
   8 H :    0.008334
   9 H :    0.010344
  10 H :    0.036325
  11 H :    0.048213
  12 H :    0.040214
  13 H :    0.047398

  Mayer bond orders larger than 0.1
B(  0-O ,  1-C ) :   1.0885 B(  0-O ,  7-H ) :   0.9774 B(  1-C ,  2-C ) :   1.0760
B(  1-C ,  8-H ) :   0.9327 B(  1-C ,  9-H ) :   0.9354 B(  2-C ,  3-C ) :   1.0653
B(  2-C , 10-H ) :   0.9237 B(  2-C , 11-H ) :   0.9024 B(  3-C ,  4-C ) :   1.8323
B(  3-C ,  6-N ) :   0.1083 B(  3-C , 12-H ) :   0.9611 B(  4-C ,  5-C ) :   1.1261
B(  4-C , 13-H ) :   0.9374 B(  5-C ,  6-N ) :   2.9650

FINAL SINGLE POINT ENERGY      -324.031495847588

DIPOLE MOMENT
-------------
                                X             Y             Z
Electronic contribution:      7.16369       0.11336      -2.16014
Nuclear contribution   :     -9.20251       0.14158       2.74485
                        -----------------------------------------
Total Dipole Moment    :     -2.03882       0.25495       0.58471
                        -----------------------------------------
Magnitude (a.u.)       :      2.13627
Magnitude (Debye)      :      5.42997

                             ****ORCA TERMINATED NORMALLY****
TOTAL RUN TIME: 0 days 0 hours 0 minutes 5 seconds 979 msec
