                         Program Version 3.0.3 - RELEASE   -
|  1> ! RI PBE def2-SVP def2-SVP/J NBO PAL2
|  2> % maxcore 2000
|  3> % output
|  4>     # printlevel mini
|  5>     print[ P_Basis ] 0
|  6>     print[ P_SCFInfo ] 1
|  7>     print[ P_SCFIterInfo ] 1
|  8>     print[ P_OrbEn ] 0
|  9>     print[ P_Cartesian ] 0
| 10> end
| 11> *xyz 0 1
| 12>  O        2.4608980000     0.5371540000    -1.2139260000
| 13>  C        2.0426280000    -0.2389010000    -0.1128560000
| 14>  C        3.0522730000    -0.0545520000     1.0036520000
| 15>  C        4.4123240000    -0.6016570000     0.6728050000
| 16>  C        5.5216200000     0.1303590000     0.5953780000
| 17>  C        4.4778620000    -2.0104770000     0.4243980000
| 18>  N        4.4834240000    -3.1466570000     0.2322440000
| 19>  H        1.9231800000     0.3113430000    -1.9757770000
| 20>  H        1.9738250000    -1.3027090000    -0.3762980000
| 21>  H        1.0562890000     0.0825620000     0.2473290000
| 22>  H        2.6680870000    -0.5549090000     1.8988180000
| 23>  H        3.1472540000     1.0096860000     1.2314180000
| 24>  H        5.4863120000     1.1989560000     0.7704110000
| 25>  H        6.4790240000    -0.3133970000     0.3538040000
| 26> *
| 27>
| 28>                          ****END OF INPUT****
 Total Charge           Charge          ....    0
 Multiplicity           Mult            ....    1
 Number of Electrons    NEL             ....   52
 Basis Dimension        Dim             ....  133

MULLIKEN ATOMIC CHARGES
-----------------------
   0 O :   -0.280904
   1 C :    0.136780
   2 C :    0.098313
   3 C :   -0.228001
   4 C :    0.047110
   5 C :   -0.129154
   6 N :    0.052856
   7 H :    0.160856
   8 H :    0.023019
   9 H :    0.004356
  10 H :    0.034674
  11 H :    0.011432
  12 H :    0.033806
  13 H :    0.034857
Sum of atomic charges:   -0.0000000

LOEWDIN ATOMIC CHARGES
----------------------
   0 O :   -0.127159
   1 C :    0.062461
   2 C :   -0.031777
   3 C :   -0.062936
   4 C :    0.004352
   5 C :   -0.033875
   6 N :   -0.059001
   7 H :    0.075452
   8 H :    0.012112
   9 H :    0.007473
  10 H :    0.045364
  11 H :    0.037608
  12 H :    0.033230
  13 H :    0.036695

  Mayer bond orders larger than 0.1
B(  0-O ,  1-C ) :   1.0869 B(  0-O ,  7-H ) :   0.9788 B(  1-C ,  2-C ) :   1.0875
B(  1-C ,  8-H ) :   0.9328 B(  1-C ,  9-H ) :   0.9296 B(  2-C ,  3-C ) :   1.0472
B(  2-C , 10-H ) :   0.9109 B(  2-C , 11-H ) :   0.8950 B(  3-C ,  4-C ) :   1.9489
B(  3-C ,  5-C ) :   1.0894 B(  4-C ,  6-N ) :   0.1113 B(  4-C , 12-H ) :   0.9283
B(  4-C , 13-H ) :   0.9341 B(  5-C ,  6-N ) :   2.9836

FINAL SINGLE POINT ENERGY      -324.028437650955

DIPOLE MOMENT
-------------
                                X             Y             Z
Electronic contribution:      2.41148      -3.95261      -0.77981
Nuclear contribution   :     -2.98764       5.03372       0.84515
                        -----------------------------------------
Total Dipole Moment    :     -0.57616       1.08111       0.06534
                        -----------------------------------------
Magnitude (a.u.)       :      1.22680
Magnitude (Debye)      :      3.11827

                             ****ORCA TERMINATED NORMALLY****
TOTAL RUN TIME: 0 days 0 hours 0 minutes 6 seconds 997 msec
