                         Program Version 3.0.3 - RELEASE   -
|  1> ! RI PBE def2-SVP def2-SVP/J NBO PAL2
|  2> % maxcore 2000
|  3> % output
|  4>     # printlevel mini
|  5>     print[ P_Basis ] 0
|  6>     print[ P_SCFInfo ] 1
|  7>     print[ P_SCFIterInfo ] 1
|  8>     print[ P_OrbEn ] 0
|  9>     print[ P_Cartesian ] 0
| 10> end
| 11> *xyz 0 1
| 12>  O        1.0186030000     0.1373760000     0.0089580000
| 13>  C        2.4213590000     0.0584180000    -0.0707330000
| 14>  C        2.9671760000     1.0656220000     0.9334320000
| 15>  C        4.4113770000     1.0937030000     0.9603660000
| 16>  C        5.6169610000     1.1008990000     0.9667280000
| 17>  C        6.9837280000     1.1143980000     0.9791330000
| 18>  N        8.1390240000     1.1238880000     0.9887640000
| 19>  H        0.6360950000    -0.4861410000    -0.6125370000
| 20>  H        2.7867050000     0.3096170000    -1.0743670000
| 21>  H        2.7875500000    -0.9443000000     0.1828740000
| 22>  H        2.5855810000     0.8185200000     1.9296050000
| 23>  H        2.5846120000     2.0608410000     0.6840070000
| 24> *
| 25>
| 26>                          ****END OF INPUT****
 Total Charge           Charge          ....    0
 Multiplicity           Mult            ....    1
 Number of Electrons    NEL             ....   50
 Basis Dimension        Dim             ....  123

MULLIKEN ATOMIC CHARGES
-----------------------
   0 O :   -0.265412
   1 C :    0.117582
   2 C :    0.046708
   3 C :   -0.185236
   4 C :    0.044856
   5 C :   -0.180544
   6 N :    0.100348
   7 H :    0.163284
   8 H :    0.021065
   9 H :    0.021032
  10 H :    0.058177
  11 H :    0.058140
Sum of atomic charges:   -0.0000000

LOEWDIN ATOMIC CHARGES
----------------------
   0 O :   -0.120819
   1 C :    0.070873
   2 C :   -0.052234
   3 C :    0.044705
   4 C :   -0.089276
   5 C :   -0.048142
   6 N :   -0.030512
   7 H :    0.078553
   8 H :    0.012039
   9 H :    0.012033
  10 H :    0.061393
  11 H :    0.061387

  Mayer bond orders larger than 0.1
B(  0-O ,  1-C ) :   1.1162 B(  0-O ,  7-H ) :   0.9744 B(  1-C ,  2-C ) :   1.0557
B(  1-C ,  8-H ) :   0.9400 B(  1-C ,  9-H ) :   0.9400 B(  2-C ,  3-C ) :   1.0476
B(  2-C , 10-H ) :   0.8896 B(  2-C , 11-H ) :   0.8896 B(  3-C ,  4-C ) :   2.3217
B(  3-C ,  6-N ) :   0.1832 B(  4-C ,  5-C ) :   0.9988 B(  4-C ,  6-N ) :   0.1234
B(  5-C ,  6-N ) :   2.8741

FINAL SINGLE POINT ENERGY      -322.793637538707

DIPOLE MOMENT
-------------
                                X             Y             Z
Electronic contribution:      7.79184       1.49290       1.48334
Nuclear contribution   :     -9.61490      -1.95621      -1.94458
                        -----------------------------------------
Total Dipole Moment    :     -1.82306      -0.46331      -0.46124
                        -----------------------------------------
Magnitude (a.u.)       :      1.93673
Magnitude (Debye)      :      4.92278

                             ****ORCA TERMINATED NORMALLY****
TOTAL RUN TIME: 0 days 0 hours 0 minutes 5 seconds 802 msec
