                         Program Version 3.0.3 - RELEASE   -
|  1> ! RI PBE def2-SVP def2-SVP/J NBO PAL2
|  2> % maxcore 2000
|  3> % output
|  4>     # printlevel mini
|  5>     print[ P_Basis ] 0
|  6>     print[ P_SCFInfo ] 1
|  7>     print[ P_SCFIterInfo ] 1
|  8>     print[ P_OrbEn ] 0
|  9>     print[ P_Cartesian ] 0
| 10> end
| 11> *xyz 0 1
| 12>  O        2.6502890000    -1.2324300000     0.6432090000
| 13>  C        2.2952590000     0.0389620000     0.1322310000
| 14>  C        2.8847330000     0.1779290000    -1.2523030000
| 15>  C        4.4030160000     0.1216390000    -1.2534780000
| 16>  C        5.0079590000     0.2220420000    -2.6547660000
| 17>  C        4.7009120000     1.4841010000    -3.3120560000
| 18>  N        4.4482590000     2.4886150000    -3.8115620000
| 19>  H        2.2954880000    -1.3191390000     1.5303360000
| 20>  H        2.6788610000     0.8406470000     0.7800920000
| 21>  H        1.2041160000     0.1475320000     0.0780350000
| 22>  H        2.5439390000     1.1253650000    -1.6825850000
| 23>  H        2.4833300000    -0.6228050000    -1.8836900000
| 24>  H        4.7332760000    -0.8186950000    -0.8073840000
| 25>  H        4.8045180000     0.9283760000    -0.6318680000
| 26>  H        4.6366220000    -0.5888640000    -3.2894810000
| 27>  H        6.0959240000     0.1199150000    -2.6126420000
| 28> *
| 29>
| 30>                          ****END OF INPUT****
 Total Charge           Charge          ....    0
 Multiplicity           Mult            ....    1
 Number of Electrons    NEL             ....   54
 Basis Dimension        Dim             ....  143

MULLIKEN ATOMIC CHARGES
-----------------------
   0 O :   -0.284562
   1 C :    0.153950
   2 C :   -0.045262
   3 C :   -0.034107
   4 C :    0.079839
   5 C :   -0.290277
   6 N :    0.041858
   7 H :    0.158291
   8 H :   -0.004272
   9 H :    0.009575
  10 H :    0.031813
  11 H :    0.017399
  12 H :    0.032049
  13 H :    0.025568
  14 H :    0.050947
  15 H :    0.057191
Sum of atomic charges:    0.0000000

LOEWDIN ATOMIC CHARGES
----------------------
   0 O :   -0.130513
   1 C :    0.058343
   2 C :   -0.053927
   3 C :   -0.026795
   4 C :   -0.058172
   5 C :   -0.046765
   6 N :   -0.072483
   7 H :    0.072777
   8 H :    0.004599
   9 H :    0.008530
  10 H :    0.035131
  11 H :    0.029146
  12 H :    0.032646
  13 H :    0.030516
  14 H :    0.057375
  15 H :    0.059592

  Mayer bond orders larger than 0.1
B(  0-O ,  1-C ) :   1.0844 B(  0-O ,  7-H ) :   0.9794 B(  1-C ,  2-C ) :   1.1030
B(  1-C ,  8-H ) :   0.9253 B(  1-C ,  9-H ) :   0.9355 B(  2-C ,  3-C ) :   1.0936
B(  2-C , 10-H ) :   0.9253 B(  2-C , 11-H ) :   0.9274 B(  3-C ,  4-C ) :   1.0941
B(  3-C , 12-H ) :   0.9257 B(  3-C , 13-H ) :   0.9349 B(  4-C ,  5-C ) :   1.1109
B(  4-C , 14-H ) :   0.8921 B(  4-C , 15-H ) :   0.8915 B(  5-C ,  6-N ) :   3.0433

FINAL SINGLE POINT ENERGY      -325.249094100326

DIPOLE MOMENT
-------------
                                X             Y             Z
Electronic contribution:      1.71044       2.60206      -3.81701
Nuclear contribution   :     -1.83862      -3.55390       4.96181
                        -----------------------------------------
Total Dipole Moment    :     -0.12818      -0.95184       1.14479
                        -----------------------------------------
Magnitude (a.u.)       :      1.49431
Magnitude (Debye)      :      3.79825

                             ****ORCA TERMINATED NORMALLY****
TOTAL RUN TIME: 0 days 0 hours 0 minutes 7 seconds 183 msec
