                         Program Version 3.0.3 - RELEASE   -
|  1> ! RI PBE def2-SVP def2-SVP/J NBO PAL2
|  2> % maxcore 2000
|  3> % output
|  4>     # printlevel mini
|  5>     print[ P_Basis ] 0
|  6>     print[ P_SCFInfo ] 1
|  7>     print[ P_SCFIterInfo ] 1
|  8>     print[ P_OrbEn ] 0
|  9>     print[ P_Cartesian ] 0
| 10> end
| 11> *xyz 0 1
| 12>  O        1.5894630000     0.3585360000    -0.9264130000
| 13>  C        2.6151880000    -0.0823220000    -0.0560070000
| 14>  C        3.0549400000     1.0652800000     0.7790710000
| 15>  C        4.3267260000     1.4280310000     0.9477750000
| 16>  C        4.7276260000     2.5212670000     1.8004300000
| 17>  N        5.9631800000     2.8053620000     1.9221530000
| 18>  O        6.1561260000     3.8750370000     2.7683580000
| 19>  H        1.1861190000    -0.4108690000    -1.3348000000
| 20>  H        3.4699580000    -0.4892010000    -0.6126120000
| 21>  H        2.2391650000    -0.8792580000     0.6043250000
| 22>  H        2.2607170000     1.6129930000     1.2819160000
| 23>  H        5.1270900000     0.8988660000     0.4374430000
| 24>  H        3.9693860000     3.0983110000     2.3331740000
| 25>  H        7.1112050000     3.9846760000     2.7697770000
| 26> *
| 27>
| 28>                          ****END OF INPUT****
 Total Charge           Charge          ....    0
 Multiplicity           Mult            ....    1
 Number of Electrons    NEL             ....   54
 Basis Dimension        Dim             ....  133

MULLIKEN ATOMIC CHARGES
-----------------------
   0 O :   -0.283931
   1 C :    0.215010
   2 C :   -0.085568
   3 C :    0.036897
   4 C :    0.005911
   5 N :   -0.052370
   6 O :   -0.165108
   7 H :    0.154297
   8 H :   -0.005400
   9 H :    0.013924
  10 H :    0.004797
  11 H :   -0.004760
  12 H :   -0.007622
  13 H :    0.173922
Sum of atomic charges:   -0.0000000

LOEWDIN ATOMIC CHARGES
----------------------
   0 O :   -0.129389
   1 C :    0.056704
   2 C :   -0.030509
   3 C :   -0.040414
   4 C :   -0.036989
   5 N :   -0.016231
   6 O :   -0.042402
   7 H :    0.069692
   8 H :    0.008598
   9 H :    0.016433
  10 H :    0.027882
  11 H :    0.030747
  12 H :    0.009619
  13 H :    0.076258

  Mayer bond orders larger than 0.1
B(  0-O ,  1-C ) :   1.0727 B(  0-O ,  7-H ) :   0.9794 B(  1-C ,  2-C ) :   1.0511
B(  1-C ,  8-H ) :   0.9283 B(  1-C ,  9-H ) :   0.9106 B(  2-C ,  3-C ) :   1.7690
B(  2-C ,  5-N ) :   0.1107 B(  2-C , 10-H ) :   0.9589 B(  3-C ,  4-C ) :   1.1133
B(  3-C , 11-H ) :   0.9567 B(  4-C ,  5-N ) :   1.7948 B(  4-C ,  6-O ) :   0.1022
B(  4-C , 12-H ) :   0.9502 B(  5-N ,  6-O ) :   1.0040 B(  6-O , 13-H ) :   0.9744

FINAL SINGLE POINT ENERGY      -361.054358464452

DIPOLE MOMENT
-------------
                                X             Y             Z
Electronic contribution:      2.87994       3.37823       1.63599
Nuclear contribution   :     -2.82223      -3.96169      -1.58755
                        -----------------------------------------
Total Dipole Moment    :      0.05771      -0.58346       0.04843
                        -----------------------------------------
Magnitude (a.u.)       :      0.58830
Magnitude (Debye)      :      1.49535

                             ****ORCA TERMINATED NORMALLY****
TOTAL RUN TIME: 0 days 0 hours 0 minutes 6 seconds 440 msec
