                         Program Version 3.0.3 - RELEASE   -
|  1> ! RI PBE def2-SVP def2-SVP/J NBO PAL2
|  2> % maxcore 2000
|  3> % output
|  4>     # printlevel mini
|  5>     print[ P_Basis ] 0
|  6>     print[ P_SCFInfo ] 1
|  7>     print[ P_SCFIterInfo ] 1
|  8>     print[ P_OrbEn ] 0
|  9>     print[ P_Cartesian ] 0
| 10> end
| 11> *xyz 0 1
| 12>  O        1.0943250000     0.1180670000    -0.4641710000
| 13>  C        2.4847380000     0.0594660000    -0.2822220000
| 14>  C        2.9422570000     1.1429500000     0.6481970000
| 15>  C        2.1014430000     1.9984940000     1.2234450000
| 16>  C        4.3927750000     1.1755740000     0.8442230000
| 17>  N        4.9256440000     1.7859470000     1.8220340000
| 18>  O        6.3016710000     1.7059310000     1.7809910000
| 19>  H        0.8299710000    -0.6128550000    -1.0260230000
| 20>  H        3.0175340000     0.1756480000    -1.2399360000
| 21>  H        2.7916580000    -0.9134950000     0.1332990000
| 22>  H        1.0368600000     1.9217430000     1.0488020000
| 23>  H        2.4721920000     2.7818110000     1.8722250000
| 24>  H        5.0298480000     0.6504850000     0.1273860000
| 25>  H        6.5715830000     2.1763250000     2.5747600000
| 26> *
| 27>
| 28>                          ****END OF INPUT****
 Total Charge           Charge          ....    0
 Multiplicity           Mult            ....    1
 Number of Electrons    NEL             ....   54
 Basis Dimension        Dim             ....  133

MULLIKEN ATOMIC CHARGES
-----------------------
   0 O :   -0.259108
   1 C :    0.208486
   2 C :   -0.139733
   3 C :   -0.007809
   4 C :    0.008329
   5 N :   -0.035070
   6 O :   -0.166828
   7 H :    0.159886
   8 H :    0.012530
   9 H :    0.011053
  10 H :    0.030687
  11 H :    0.020801
  12 H :   -0.016202
  13 H :    0.172978
Sum of atomic charges:    0.0000000

LOEWDIN ATOMIC CHARGES
----------------------
   0 O :   -0.109682
   1 C :    0.061911
   2 C :   -0.070452
   3 C :   -0.034197
   4 C :   -0.038328
   5 N :   -0.004652
   6 O :   -0.043790
   7 H :    0.075785
   8 H :    0.014941
   9 H :    0.015978
  10 H :    0.026944
  11 H :    0.025508
  12 H :    0.004317
  13 H :    0.075716

  Mayer bond orders larger than 0.1
B(  0-O ,  1-C ) :   1.1176 B(  0-O ,  7-H ) :   0.9745 B(  1-C ,  2-C ) :   1.0027
B(  1-C ,  8-H ) :   0.9153 B(  1-C ,  9-H ) :   0.9211 B(  2-C ,  3-C ) :   1.9586
B(  2-C ,  4-C ) :   1.0488 B(  3-C , 10-H ) :   0.9194 B(  3-C , 11-H ) :   0.9230
B(  4-C ,  5-N ) :   1.8540 B(  4-C ,  6-O ) :   0.1091 B(  4-C , 12-H ) :   0.9357
B(  5-N ,  6-O ) :   1.0013 B(  6-O , 13-H ) :   0.9742

FINAL SINGLE POINT ENERGY      -361.049172626376

DIPOLE MOMENT
-------------
                                X             Y             Z
Electronic contribution:      2.70119       1.01598       1.56575
Nuclear contribution   :     -2.47283      -1.54420      -1.87667
                        -----------------------------------------
Total Dipole Moment    :      0.22836      -0.52822      -0.31092
                        -----------------------------------------
Magnitude (a.u.)       :      0.65409
Magnitude (Debye)      :      1.66257

                             ****ORCA TERMINATED NORMALLY****
TOTAL RUN TIME: 0 days 0 hours 0 minutes 5 seconds 989 msec
