                         Program Version 3.0.3 - RELEASE   -
|  1> ! RI PBE def2-SVP def2-SVP/J NBO PAL2
|  2> % maxcore 2000
|  3> % output
|  4>     # printlevel mini
|  5>     print[ P_Basis ] 0
|  6>     print[ P_SCFInfo ] 1
|  7>     print[ P_SCFIterInfo ] 1
|  8>     print[ P_OrbEn ] 0
|  9>     print[ P_Cartesian ] 0
| 10> end
| 11> *xyz 0 1
| 12>  O        2.9479030000    -0.4719900000    -1.0091930000
| 13>  C        2.1309660000     0.2365030000    -0.1264090000
| 14>  C        2.9005100000     1.0079990000     0.9124050000
| 15>  C        2.2113490000     1.8058530000     1.9174580000
| 16>  C        0.8873850000     1.9166310000     2.0000340000
| 17>  N        4.1686270000     0.8920400000     0.8207590000
| 18>  O        4.8786610000     1.5941650000     1.7665550000
| 19>  H        3.8590360000    -0.2943160000    -0.7360580000
| 20>  H        1.4509090000    -0.4554240000     0.3900340000
| 21>  H        1.5010580000     0.9426110000    -0.6854550000
| 22>  H        2.8453060000     2.3272510000     2.6244440000
| 23>  H        0.2161470000     1.4125350000     1.3137960000
| 24>  H        0.4273070000     2.5249970000     2.7692560000
| 25>  H        5.7920560000     1.3922560000     1.5464940000
| 26> *
| 27>
| 28>                          ****END OF INPUT****
 Total Charge           Charge          ....    0
 Multiplicity           Mult            ....    1
 Number of Electrons    NEL             ....   54
 Basis Dimension        Dim             ....  133

MULLIKEN ATOMIC CHARGES
-----------------------
   0 O :   -0.270608
   1 C :    0.249073
   2 C :   -0.185190
   3 C :    0.034730
   4 C :   -0.025770
   5 N :   -0.076317
   6 O :   -0.157344
   7 H :    0.140543
   8 H :    0.016527
   9 H :    0.017907
  10 H :    0.007081
  11 H :    0.034805
  12 H :    0.036006
  13 H :    0.178557
Sum of atomic charges:    0.0000000

LOEWDIN ATOMIC CHARGES
----------------------
   0 O :   -0.120151
   1 C :    0.057839
   2 C :   -0.068623
   3 C :   -0.041032
   4 C :   -0.023667
   5 N :   -0.025596
   6 O :   -0.036017
   7 H :    0.043380
   8 H :    0.021194
   9 H :    0.021652
  10 H :    0.033525
  11 H :    0.026737
  12 H :    0.031062
  13 H :    0.079696

  Mayer bond orders larger than 0.1
B(  0-O ,  1-C ) :   1.1452 B(  0-O ,  7-H ) :   0.9495 B(  1-C ,  2-C ) :   1.0281
B(  1-C ,  8-H ) :   0.9056 B(  1-C ,  9-H ) :   0.9039 B(  2-C ,  3-C ) :   1.0777
B(  2-C ,  5-N ) :   1.7942 B(  3-C ,  4-C ) :   1.9020 B(  3-C , 10-H ) :   0.9458
B(  4-C , 11-H ) :   0.9369 B(  4-C , 12-H ) :   0.9405 B(  5-N ,  6-O ) :   1.0241
B(  5-N ,  7-H ) :   0.1008 B(  6-O , 13-H ) :   0.9724

FINAL SINGLE POINT ENERGY      -361.057762523733

DIPOLE MOMENT
-------------
                                X             Y             Z
Electronic contribution:      4.43056      -0.50378      -0.44567
Nuclear contribution   :     -4.19023       0.98527       1.08518
                        -----------------------------------------
Total Dipole Moment    :      0.24033       0.48148       0.63951
                        -----------------------------------------
Magnitude (a.u.)       :      0.83580
Magnitude (Debye)      :      2.12442

                             ****ORCA TERMINATED NORMALLY****
TOTAL RUN TIME: 0 days 0 hours 0 minutes 6 seconds 533 msec
