                         Program Version 3.0.3 - RELEASE   -
|  1> ! RI PBE def2-SVP def2-SVP/J NBO PAL2
|  2> % maxcore 2000
|  3> % output
|  4>     # printlevel mini
|  5>     print[ P_Basis ] 0
|  6>     print[ P_SCFInfo ] 1
|  7>     print[ P_SCFIterInfo ] 1
|  8>     print[ P_OrbEn ] 0
|  9>     print[ P_Cartesian ] 0
| 10> end
| 11> *xyz 0 1
| 12>  O        1.0187300000    -0.4227940000    -0.0199000000
| 13>  C        2.3779650000    -0.0538000000     0.0833910000
| 14>  C        2.8672780000     0.3937990000    -1.2073280000
| 15>  C        3.3163500000     0.7728100000    -2.2580320000
| 16>  C        3.7591000000     1.2025310000    -3.5303580000
| 17>  N        4.9610540000     1.5913690000    -3.7030400000
| 18>  O        5.1751970000     1.9628800000    -5.0085440000
| 19>  H        0.7263810000    -0.7129580000     0.8479370000
| 20>  H        2.9986540000    -0.8982440000     0.4165230000
| 21>  H        2.5186420000     0.7599350000     0.8095860000
| 22>  H        3.0504860000     1.1941270000    -4.3600560000
| 23>  H        6.0986550000     2.2309460000    -5.0117770000
| 24> *
| 25>
| 26>                          ****END OF INPUT****
 Total Charge           Charge          ....    0
 Multiplicity           Mult            ....    1
 Number of Electrons    NEL             ....   52
 Basis Dimension        Dim             ....  123

MULLIKEN ATOMIC CHARGES
-----------------------
   0 O :   -0.263455
   1 C :    0.202028
   2 C :   -0.105058
   3 C :    0.001968
   4 C :   -0.056973
   5 N :   -0.045807
   6 O :   -0.163667
   7 H :    0.157433
   8 H :    0.030030
   9 H :    0.030761
  10 H :    0.035199
  11 H :    0.177540
Sum of atomic charges:   -0.0000000

LOEWDIN ATOMIC CHARGES
----------------------
   0 O :   -0.118873
   1 C :    0.049774
   2 C :   -0.030797
   3 C :   -0.046093
   4 C :   -0.052681
   5 N :   -0.000378
   6 O :   -0.038050
   7 H :    0.072699
   8 H :    0.030515
   9 H :    0.030723
  10 H :    0.023775
  11 H :    0.079387

  Mayer bond orders larger than 0.1
B(  0-O ,  1-C ) :   1.1394 B(  0-O ,  7-H ) :   0.9762 B(  1-C ,  2-C ) :   1.0325
B(  1-C ,  8-H ) :   0.9065 B(  1-C ,  9-H ) :   0.9060 B(  2-C ,  3-C ) :   2.5441
B(  3-C ,  4-C ) :   1.0003 B(  4-C ,  5-N ) :   1.8061 B(  4-C ,  6-O ) :   0.1082
B(  4-C , 10-H ) :   0.9419 B(  5-N ,  6-O ) :   1.0110 B(  6-O , 11-H ) :   0.9735

FINAL SINGLE POINT ENERGY      -359.805986940123

DIPOLE MOMENT
-------------
                                X             Y             Z
Electronic contribution:      1.53812       1.17247      -3.06873
Nuclear contribution   :     -1.27846      -1.24216       3.68006
                        -----------------------------------------
Total Dipole Moment    :      0.25966      -0.06969       0.61133
                        -----------------------------------------
Magnitude (a.u.)       :      0.66784
Magnitude (Debye)      :      1.69750

                             ****ORCA TERMINATED NORMALLY****
TOTAL RUN TIME: 0 days 0 hours 0 minutes 5 seconds 989 msec
