                         Program Version 3.0.3 - RELEASE   -
|  1> ! RI PBE def2-SVP def2-SVP/J NBO PAL2
|  2> % maxcore 2000
|  3> % output
|  4>     # printlevel mini
|  5>     print[ P_Basis ] 0
|  6>     print[ P_SCFInfo ] 1
|  7>     print[ P_SCFIterInfo ] 1
|  8>     print[ P_OrbEn ] 0
|  9>     print[ P_Cartesian ] 0
| 10> end
| 11> *xyz 0 1
| 12>  O        0.8474130000     0.0452530000     0.1029100000
| 13>  C        2.2574280000     0.0146130000     0.1987440000
| 14>  C        2.8201170000     0.0163170000    -1.2039900000
| 15>  C        4.3456790000    -0.0421040000    -1.2330290000
| 16>  C        4.9885580000     1.1752650000    -0.6659860000
| 17>  N        5.7974040000     1.0829980000     0.3029000000
| 18>  O        6.2925510000     2.3210800000     0.6808170000
| 19>  H        0.4807150000     0.0770120000     0.9889990000
| 20>  H        2.5976110000    -0.8862600000     0.7302730000
| 21>  H        2.6339520000     0.8836520000     0.7555060000
| 22>  H        2.4648770000     0.9120330000    -1.7244110000
| 23>  H        2.4122910000    -0.8419950000    -1.7451870000
| 24>  H        4.6699750000    -0.1512850000    -2.2742800000
| 25>  H        4.7130630000    -0.9163790000    -0.6889650000
| 26>  H        4.7551380000     2.1535060000    -1.0955280000
| 27>  H        6.8855170000     2.1044160000     1.4053260000
| 28> *
| 29>
| 30>                          ****END OF INPUT****
 Total Charge           Charge          ....    0
 Multiplicity           Mult            ....    1
 Number of Electrons    NEL             ....   56
 Basis Dimension        Dim             ....  143

MULLIKEN ATOMIC CHARGES
-----------------------
   0 O :   -0.277568
   1 C :    0.142053
   2 C :   -0.048572
   3 C :    0.074817
   4 C :   -0.068225
   5 N :   -0.048806
   6 O :   -0.180893
   7 H :    0.153734
   8 H :   -0.004826
   9 H :    0.009167
  10 H :    0.019663
  11 H :    0.019577
  12 H :    0.029239
  13 H :    0.008819
  14 H :    0.002400
  15 H :    0.169420
Sum of atomic charges:   -0.0000000

LOEWDIN ATOMIC CHARGES
----------------------
   0 O :   -0.129204
   1 C :    0.055330
   2 C :   -0.048029
   3 C :   -0.044114
   4 C :   -0.037229
   5 N :   -0.020338
   6 O :   -0.058918
   7 H :    0.070286
   8 H :    0.003851
   9 H :    0.005154
  10 H :    0.026302
  11 H :    0.029214
  12 H :    0.039871
  13 H :    0.030797
  14 H :    0.005007
  15 H :    0.072019

  Mayer bond orders larger than 0.1
B(  0-O ,  1-C ) :   1.0948 B(  0-O ,  7-H ) :   0.9802 B(  1-C ,  2-C ) :   1.0802
B(  1-C ,  8-H ) :   0.9315 B(  1-C ,  9-H ) :   0.9329 B(  2-C ,  3-C ) :   1.0672
B(  2-C , 10-H ) :   0.9358 B(  2-C , 11-H ) :   0.9284 B(  3-C ,  4-C ) :   1.0397
B(  3-C , 12-H ) :   0.9135 B(  3-C , 13-H ) :   0.9191 B(  4-C ,  5-N ) :   1.8964
B(  4-C ,  6-O ) :   0.1122 B(  4-C , 14-H ) :   0.9389 B(  5-N ,  6-O ) :   0.9874
B(  6-O , 15-H ) :   0.9769

FINAL SINGLE POINT ENERGY      -362.267639136273

DIPOLE MOMENT
-------------
                                X             Y             Z
Electronic contribution:      3.26577       2.56825       2.08901
Nuclear contribution   :     -3.12512      -2.61652      -1.61878
                        -----------------------------------------
Total Dipole Moment    :      0.14065      -0.04827       0.47023
                        -----------------------------------------
Magnitude (a.u.)       :      0.49319
Magnitude (Debye)      :      1.25358

                             ****ORCA TERMINATED NORMALLY****
TOTAL RUN TIME: 0 days 0 hours 0 minutes 6 seconds 889 msec
