                         Program Version 3.0.3 - RELEASE   -
|  1> ! RI PBE def2-SVP def2-SVP/J NBO PAL2
|  2> % maxcore 2000
|  3> % output
|  4>     # printlevel mini
|  5>     print[ P_Basis ] 0
|  6>     print[ P_SCFInfo ] 1
|  7>     print[ P_SCFIterInfo ] 1
|  8>     print[ P_OrbEn ] 0
|  9>     print[ P_Cartesian ] 0
| 10> end
| 11> *xyz 0 1
| 12>  O        1.2312270000    -3.4458240000     1.2541280000
| 13>  C        2.2755680000    -3.3291280000     0.3049040000
| 14>  C        3.0682060000    -2.0857180000     0.6356890000
| 15>  C        4.1942630000    -1.8179440000    -0.3448290000
| 16>  N        5.1710300000    -2.8905400000    -0.3444790000
| 17>  C        6.4909180000    -2.5441430000    -0.8206390000
| 18>  C        6.2423170000    -2.7648710000     0.6214860000
| 19>  H        0.7743810000    -4.2756500000     1.1026200000
| 20>  H        1.8696920000    -3.2446580000    -0.7144250000
| 21>  H        2.9347930000    -4.2043190000     0.3267970000
| 22>  H        3.4708390000    -2.1813160000     1.6495030000
| 23>  H        2.3890830000    -1.2275360000     0.6450500000
| 24>  H        4.6642220000    -0.8483080000    -0.1049850000
| 25>  H        3.7941590000    -1.7348720000    -1.3616420000
| 26>  H        6.6583600000    -1.5177160000    -1.1399870000
| 27>  H        6.9970400000    -3.2979770000    -1.4139060000
| 28>  H        6.2424150000    -1.8855000000     1.2620990000
| 29>  H        6.5639850000    -3.6825810000     1.1014380000
| 30> *
| 31>
| 32>                          ****END OF INPUT****
 Total Charge           Charge          ....    0
 Multiplicity           Mult            ....    1
 Number of Electrons    NEL             ....   56
 Basis Dimension        Dim             ....  153

MULLIKEN ATOMIC CHARGES
-----------------------
   0 O :   -0.282305
   1 C :    0.144621
   2 C :   -0.014764
   3 C :    0.107775
   4 N :   -0.298387
   5 C :    0.025719
   6 C :    0.029955
   7 H :    0.152289
   8 H :   -0.014961
   9 H :    0.009166
  10 H :    0.010343
  11 H :    0.019279
  12 H :   -0.017557
  13 H :    0.004349
  14 H :    0.020331
  15 H :    0.039137
  16 H :    0.028837
  17 H :    0.036171
Sum of atomic charges:   -0.0000000

LOEWDIN ATOMIC CHARGES
----------------------
   0 O :   -0.133871
   1 C :    0.056985
   2 C :   -0.056916
   3 C :    0.017971
   4 N :   -0.110325
   5 C :    0.003360
   6 C :    0.001745
   7 H :    0.068907
   8 H :    0.000833
   9 H :    0.005871
  10 H :    0.025886
  11 H :    0.030627
  12 H :    0.001679
  13 H :    0.020056
  14 H :    0.012109
  15 H :    0.021099
  16 H :    0.013161
  17 H :    0.020823

  Mayer bond orders larger than 0.1
B(  0-O ,  1-C ) :   1.0908 B(  0-O ,  7-H ) :   0.9816 B(  1-C ,  2-C ) :   1.0851
B(  1-C ,  8-H ) :   0.9310 B(  1-C ,  9-H ) :   0.9378 B(  2-C ,  3-C ) :   1.0796
B(  2-C , 10-H ) :   0.9250 B(  2-C , 11-H ) :   0.9285 B(  3-C ,  4-N ) :   1.0044
B(  3-C , 12-H ) :   0.9064 B(  3-C , 13-H ) :   0.9311 B(  4-N ,  5-C ) :   0.9728
B(  4-N ,  6-C ) :   0.9625 B(  5-C ,  6-C ) :   1.0901 B(  5-C , 14-H ) :   0.9323
B(  5-C , 15-H ) :   0.9509 B(  6-C , 16-H ) :   0.9306 B(  6-C , 17-H ) :   0.9504

FINAL SINGLE POINT ENERGY      -326.411067066458

DIPOLE MOMENT
-------------
                                X             Y             Z
Electronic contribution:     -1.73009      -1.70092       0.62459
Nuclear contribution   :      1.99839       1.63990      -0.89868
                        -----------------------------------------
Total Dipole Moment    :      0.26830      -0.06102      -0.27409
                        -----------------------------------------
Magnitude (a.u.)       :      0.38837
Magnitude (Debye)      :      0.98716

                             ****ORCA TERMINATED NORMALLY****
TOTAL RUN TIME: 0 days 0 hours 0 minutes 7 seconds 767 msec
