                         Program Version 3.0.3 - RELEASE   -
|  1> ! RI PBE def2-SVP def2-SVP/J NBO PAL2
|  2> % maxcore 2000
|  3> % output
|  4>     # printlevel mini
|  5>     print[ P_Basis ] 0
|  6>     print[ P_SCFInfo ] 1
|  7>     print[ P_SCFIterInfo ] 1
|  8>     print[ P_OrbEn ] 0
|  9>     print[ P_Cartesian ] 0
| 10> end
| 11> *xyz 0 1
| 12>  O        2.3559620000    -0.7846550000    -0.6350090000
| 13>  C        2.0108870000     0.2262060000    -0.0853170000
| 14>  C        2.9371110000     1.2122120000     0.5530220000
| 15>  C        4.4020890000     0.8464750000     0.4554550000
| 16>  N        5.2093980000     1.8204730000     1.1606410000
| 17>  C        6.6011630000     1.8822590000     0.7727930000
| 18>  C        5.6604050000     2.9530940000     0.3765250000
| 19>  H        0.9321800000     0.4895150000    -0.0196530000
| 20>  H        2.6367580000     1.3239930000     1.6028210000
| 21>  H        2.7379740000     2.1925920000     0.0992970000
| 22>  H        4.6926130000     0.7534470000    -0.6035440000
| 23>  H        4.5652800000    -0.1335860000     0.9113450000
| 24>  H        6.9380400000     1.2062850000    -0.0096970000
| 25>  H        7.3104160000     2.0444430000     1.5769560000
| 26>  H        5.3702610000     2.9896030000    -0.6716500000
| 27>  H        5.6716630000     3.9110540000     0.8846150000
| 28> *
| 29>
| 30>                          ****END OF INPUT****
 Total Charge           Charge          ....    0
 Multiplicity           Mult            ....    1
 Number of Electrons    NEL             ....   54
 Basis Dimension        Dim             ....  143

MULLIKEN ATOMIC CHARGES
-----------------------
   0 O :   -0.162831
   1 C :    0.078501
   2 C :   -0.000191
   3 C :    0.111008
   4 N :   -0.295645
   5 C :    0.025348
   6 C :    0.020671
   7 H :   -0.007321
   8 H :    0.043984
   9 H :    0.030217
  10 H :   -0.004504
  11 H :    0.022611
  12 H :    0.030498
  13 H :    0.041507
  14 H :    0.027569
  15 H :    0.038578
Sum of atomic charges:    0.0000000

LOEWDIN ATOMIC CHARGES
----------------------
   0 O :   -0.111029
   1 C :    0.092964
   2 C :   -0.087537
   3 C :    0.018692
   4 N :   -0.109745
   5 C :    0.004042
   6 C :   -0.000471
   7 H :   -0.011304
   8 H :    0.051606
   9 H :    0.045728
  10 H :    0.006352
  11 H :    0.028729
  12 H :    0.015516
  13 H :    0.022374
  14 H :    0.012712
  15 H :    0.021373

  Mayer bond orders larger than 0.1
B(  0-O ,  1-C ) :   2.1817 B(  1-C ,  2-C ) :   0.9714 B(  1-C ,  7-H ) :   0.9322
B(  2-C ,  3-C ) :   1.0804 B(  2-C ,  8-H ) :   0.8951 B(  2-C ,  9-H ) :   0.9014
B(  3-C ,  4-N ) :   1.0120 B(  3-C , 10-H ) :   0.9122 B(  3-C , 11-H ) :   0.9333
B(  4-N ,  5-C ) :   0.9733 B(  4-N ,  6-C ) :   0.9572 B(  5-C ,  6-C ) :   1.0930
B(  5-C , 12-H ) :   0.9319 B(  5-C , 13-H ) :   0.9502 B(  6-C , 14-H ) :   0.9308
B(  6-C , 15-H ) :   0.9509

FINAL SINGLE POINT ENERGY      -325.217446406360

DIPOLE MOMENT
-------------
                                X             Y             Z
Electronic contribution:     -3.17268      -3.41975      -0.50580
Nuclear contribution   :      3.26618       4.18339       0.56398
                        -----------------------------------------
Total Dipole Moment    :      0.09350       0.76365       0.05818
                        -----------------------------------------
Magnitude (a.u.)       :      0.77154
Magnitude (Debye)      :      1.96111

                             ****ORCA TERMINATED NORMALLY****
TOTAL RUN TIME: 0 days 0 hours 0 minutes 7 seconds 249 msec
