                         Program Version 3.0.3 - RELEASE   -
|  1> ! RI PBE def2-SVP def2-SVP/J NBO PAL2
|  2> % maxcore 2000
|  3> % output
|  4>     # printlevel mini
|  5>     print[ P_Basis ] 0
|  6>     print[ P_SCFInfo ] 1
|  7>     print[ P_SCFIterInfo ] 1
|  8>     print[ P_OrbEn ] 0
|  9>     print[ P_Cartesian ] 0
| 10> end
| 11> *xyz 0 1
| 12>  O        1.2866160000    -0.7216210000     0.8091110000
| 13>  C        2.4227730000    -0.5262180000     0.4536200000
| 14>  C        2.8187180000     0.4237710000    -0.5786170000
| 15>  C        4.1057970000     0.5570010000    -0.9026420000
| 16>  N        4.5564270000     1.4446610000    -1.8855170000
| 17>  C        5.9308430000     1.9183510000    -1.7053570000
| 18>  C        5.6327110000     0.9183520000    -2.7364320000
| 19>  H        3.2657830000    -1.0859170000     0.9171550000
| 20>  H        2.0498600000     1.0107680000    -1.0681100000
| 21>  H        4.8566480000    -0.0515060000    -0.3833980000
| 22>  H        6.4618250000     1.5864460000    -0.8175820000
| 23>  H        6.0820660000     2.9571940000    -1.9733940000
| 24>  H        5.9558160000    -0.1030260000    -2.5575800000
| 25>  H        5.5548260000     1.2040630000    -3.7785580000
| 26> *
| 27>
| 28>                          ****END OF INPUT****
 Total Charge           Charge          ....    0
 Multiplicity           Mult            ....    1
 Number of Electrons    NEL             ....   52
 Basis Dimension        Dim             ....  133

MULLIKEN ATOMIC CHARGES
-----------------------
   0 O :   -0.170157
   1 C :    0.112866
   2 C :    0.009918
   3 C :    0.046548
   4 N :   -0.234405
   5 C :    0.034711
   6 C :    0.030547
   7 H :   -0.032318
   8 H :    0.012300
   9 H :   -0.008403
  10 H :    0.043666
  11 H :    0.053289
  12 H :    0.043819
  13 H :    0.057619
Sum of atomic charges:    0.0000000

LOEWDIN ATOMIC CHARGES
----------------------
   0 O :   -0.119518
   1 C :    0.064408
   2 C :   -0.077731
   3 C :    0.042988
   4 N :   -0.091572
   5 C :    0.022246
   6 C :    0.025529
   7 H :   -0.016763
   8 H :    0.040811
   9 H :    0.007278
  10 H :    0.019448
  11 H :    0.031120
  12 H :    0.020500
  13 H :    0.031256

  Mayer bond orders larger than 0.1
B(  0-O ,  1-C ) :   2.1008 B(  0-O ,  3-C ) :   0.1031 B(  1-C ,  2-C ) :   1.0335
B(  1-C ,  7-H ) :   0.9287 B(  2-C ,  3-C ) :   1.7179 B(  2-C ,  8-H ) :   0.9688
B(  3-C ,  4-N ) :   1.1048 B(  3-C ,  9-H ) :   0.9233 B(  4-N ,  5-C ) :   0.9225
B(  4-N ,  6-C ) :   0.9148 B(  5-C ,  6-C ) :   1.0824 B(  5-C , 10-H ) :   0.9437
B(  5-C , 11-H ) :   0.9488 B(  6-C , 12-H ) :   0.9435 B(  6-C , 13-H ) :   0.9512

FINAL SINGLE POINT ENERGY      -324.004151711377

DIPOLE MOMENT
-------------
                                X             Y             Z
Electronic contribution:     -5.38885      -1.23517       2.39479
Nuclear contribution   :      7.05294       1.52597      -3.03258
                        -----------------------------------------
Total Dipole Moment    :      1.66409       0.29080      -0.63779
                        -----------------------------------------
Magnitude (a.u.)       :      1.80569
Magnitude (Debye)      :      4.58971

                             ****ORCA TERMINATED NORMALLY****
TOTAL RUN TIME: 0 days 0 hours 0 minutes 6 seconds 442 msec
