                         Program Version 3.0.3 - RELEASE   -
|  1> ! RI PBE def2-SVP def2-SVP/J NBO PAL2
|  2> % maxcore 2000
|  3> % output
|  4>     # printlevel mini
|  5>     print[ P_Basis ] 0
|  6>     print[ P_SCFInfo ] 1
|  7>     print[ P_SCFIterInfo ] 1
|  8>     print[ P_OrbEn ] 0
|  9>     print[ P_Cartesian ] 0
| 10> end
| 11> *xyz 0 1
| 12>  O        1.0689370000     0.4165880000    -0.8289580000
| 13>  C        2.1275240000     0.2175460000    -0.2957330000
| 14>  C        2.7910910000     1.3065980000     0.5479760000
| 15>  C        3.4605670000     0.8235640000     1.7409020000
| 16>  N        3.9814440000     0.4412530000     2.6908330000
| 17>  C        2.8639380000    -1.0135970000    -0.4488470000
| 18>  C        3.4982000000    -2.0271020000    -0.5604480000
| 19>  H        2.0239190000     2.0377950000     0.8089340000
| 20>  H        3.5281150000     1.8074280000    -0.0909430000
| 21>  H        4.0520630000    -2.9322620000    -0.6614170000
| 22> *
| 23>
| 24>                          ****END OF INPUT****
 Total Charge           Charge          ....    0
 Multiplicity           Mult            ....    1
 Number of Electrons    NEL             ....   48
 Basis Dimension        Dim             ....  113

MULLIKEN ATOMIC CHARGES
-----------------------
   0 O :   -0.113405
   1 C :   -0.018288
   2 C :    0.121668
   3 C :   -0.276780
   4 N :    0.054498
   5 C :    0.403838
   6 C :   -0.371244
   7 H :    0.073058
   8 H :    0.093525
   9 H :    0.033130
Sum of atomic charges:   -0.0000000

LOEWDIN ATOMIC CHARGES
----------------------
   0 O :   -0.070050
   1 C :    0.051604
   2 C :   -0.072256
   3 C :   -0.047365
   4 N :   -0.048923
   5 C :   -0.042086
   6 C :    0.025133
   7 H :    0.071971
   8 H :    0.082512
   9 H :    0.049459

  Mayer bond orders larger than 0.1
B(  0-O ,  1-C ) :   2.1784 B(  0-O ,  6-C ) :   0.1140 B(  1-C ,  2-C ) :   0.9649
B(  1-C ,  5-C ) :   0.8863 B(  2-C ,  3-C ) :   1.0711 B(  2-C ,  7-H ) :   0.8790
B(  2-C ,  8-H ) :   0.8829 B(  3-C ,  4-N ) :   3.0544 B(  5-C ,  6-C ) :   2.3230
B(  6-C ,  9-H ) :   1.0846

FINAL SINGLE POINT ENERGY      -321.584228663376

DIPOLE MOMENT
-------------
                                X             Y             Z
Electronic contribution:     -0.80607      -0.67170       0.24351
Nuclear contribution   :      1.14190       0.69937      -1.04991
                        -----------------------------------------
Total Dipole Moment    :      0.33583       0.02766      -0.80640
                        -----------------------------------------
Magnitude (a.u.)       :      0.87397
Magnitude (Debye)      :      2.22146

                             ****ORCA TERMINATED NORMALLY****
TOTAL RUN TIME: 0 days 0 hours 0 minutes 4 seconds 887 msec
