                         Program Version 3.0.3 - RELEASE   -
|  1> ! RI PBE def2-SVP def2-SVP/J NBO PAL2
|  2> % maxcore 2000
|  3> % output
|  4>     # printlevel mini
|  5>     print[ P_Basis ] 0
|  6>     print[ P_SCFInfo ] 1
|  7>     print[ P_SCFIterInfo ] 1
|  8>     print[ P_OrbEn ] 0
|  9>     print[ P_Cartesian ] 0
| 10> end
| 11> *xyz 0 1
| 12>  O        0.9425850000    -0.2051690000    -0.1004850000
| 13>  C        2.3178780000    -0.0281140000     0.1396450000
| 14>  C        2.6173110000    -0.0593460000     1.6532930000
| 15>  C        1.8603390000     0.9688970000     2.3457520000
| 16>  N        1.2253650000     1.7956310000     2.8319320000
| 17>  C        3.0463190000    -1.1382030000    -0.5442280000
| 18>  C        4.1010630000    -0.9644440000    -1.3241390000
| 19>  H        0.4589150000     0.5201170000     0.3094410000
| 20>  H        2.6668990000     0.9344460000    -0.2578160000
| 21>  H        3.6847440000     0.0930180000     1.8306590000
| 22>  H        2.3404830000    -1.0363690000     2.0593480000
| 23>  H        2.6533670000    -2.1341620000    -0.3522700000
| 24>  H        4.4921500000     0.0254350000    -1.5383710000
| 25>  H        4.6110720000    -1.8036370000    -1.7818710000
| 26> *
| 27>
| 28>                          ****END OF INPUT****
 Total Charge           Charge          ....    0
 Multiplicity           Mult            ....    1
 Number of Electrons    NEL             ....   52
 Basis Dimension        Dim             ....  133

MULLIKEN ATOMIC CHARGES
-----------------------
   0 O :   -0.255965
   1 C :    0.071461
   2 C :    0.111061
   3 C :   -0.294505
   4 N :    0.058828
   5 C :   -0.025015
   6 C :   -0.017096
   7 H :    0.167783
   8 H :    0.006048
   9 H :    0.055894
  10 H :    0.044493
  11 H :    0.016889
  12 H :    0.024529
  13 H :    0.035593
Sum of atomic charges:    0.0000000

LOEWDIN ATOMIC CHARGES
----------------------
   0 O :   -0.100754
   1 C :    0.057962
   2 C :   -0.067771
   3 C :   -0.051031
   4 N :   -0.066931
   5 C :   -0.029317
   6 C :   -0.042253
   7 H :    0.074711
   8 H :    0.016651
   9 H :    0.061063
  10 H :    0.058872
  11 H :    0.032526
  12 H :    0.025511
  13 H :    0.030761

  Mayer bond orders larger than 0.1
B(  0-O ,  1-C ) :   1.0584 B(  0-O ,  7-H ) :   0.9691 B(  1-C ,  2-C ) :   1.0123
B(  1-C ,  5-C ) :   1.0290 B(  1-C ,  8-H ) :   0.9118 B(  2-C ,  3-C ) :   1.1259
B(  2-C ,  9-H ) :   0.8879 B(  2-C , 10-H ) :   0.8709 B(  3-C ,  4-N ) :   3.0316
B(  5-C ,  6-C ) :   2.0122 B(  5-C , 11-H ) :   0.9458 B(  6-C , 12-H ) :   0.9471
B(  6-C , 13-H ) :   0.9417

FINAL SINGLE POINT ENERGY      -324.026819102248

DIPOLE MOMENT
-------------
                                X             Y             Z
Electronic contribution:     -3.76724       2.84772       3.73526
Nuclear contribution   :      4.65954      -3.43993      -4.18307
                        -----------------------------------------
Total Dipole Moment    :      0.89230      -0.59221      -0.44781
                        -----------------------------------------
Magnitude (a.u.)       :      1.16080
Magnitude (Debye)      :      2.95051

                             ****ORCA TERMINATED NORMALLY****
TOTAL RUN TIME: 0 days 0 hours 0 minutes 6 seconds 21 msec
