                         Program Version 3.0.3 - RELEASE   -
|  1> ! RI PBE def2-SVP def2-SVP/J NBO PAL2
|  2> % maxcore 2000
|  3> % output
|  4>     # printlevel mini
|  5>     print[ P_Basis ] 0
|  6>     print[ P_SCFInfo ] 1
|  7>     print[ P_SCFIterInfo ] 1
|  8>     print[ P_OrbEn ] 0
|  9>     print[ P_Cartesian ] 0
| 10> end
| 11> *xyz 0 1
| 12>  O        1.0453980000    -0.0414850000     0.0629180000
| 13>  C        2.4563840000    -0.0076060000     0.0997080000
| 14>  C        2.9080580000    -1.2471040000    -0.6800780000
| 15>  C        4.3390330000    -1.4759560000    -0.5987180000
| 16>  N        5.4704970000    -1.6607310000    -0.5219270000
| 17>  C        2.9957890000     1.2262770000    -0.4642040000
| 18>  C        3.4210030000     2.2528670000    -0.9159510000
| 19>  H        0.7139710000     0.8139500000     0.3501510000
| 20>  H        2.8177910000    -0.0993240000     1.1336150000
| 21>  H        2.6111370000    -1.1411790000    -1.7259510000
| 22>  H        2.3823070000    -2.1124430000    -0.2684020000
| 23>  H        3.8072220000     3.1594340000    -1.3198710000
| 24> *
| 25>
| 26>                          ****END OF INPUT****
 Total Charge           Charge          ....    0
 Multiplicity           Mult            ....    1
 Number of Electrons    NEL             ....   50
 Basis Dimension        Dim             ....  123

MULLIKEN ATOMIC CHARGES
-----------------------
   0 O :   -0.239268
   1 C :    0.115044
   2 C :    0.077717
   3 C :   -0.260883
   4 N :    0.055993
   5 C :    0.360415
   6 C :   -0.470464
   7 H :    0.166950
   8 H :    0.047567
   9 H :    0.065956
  10 H :    0.067703
  11 H :    0.013270
Sum of atomic charges:    0.0000000

LOEWDIN ATOMIC CHARGES
----------------------
   0 O :   -0.097063
   1 C :    0.052242
   2 C :   -0.049837
   3 C :   -0.042465
   4 N :   -0.057277
   5 C :   -0.047275
   6 C :   -0.044826
   7 H :    0.080490
   8 H :    0.035784
   9 H :    0.063832
  10 H :    0.064654
  11 H :    0.041740

  Mayer bond orders larger than 0.1
B(  0-O ,  1-C ) :   1.1167 B(  0-O ,  7-H ) :   0.9685 B(  1-C ,  2-C ) :   1.0371
B(  1-C ,  5-C ) :   0.9546 B(  1-C ,  8-H ) :   0.9074 B(  2-C ,  3-C ) :   1.0731
B(  2-C ,  9-H ) :   0.8910 B(  2-C , 10-H ) :   0.8924 B(  3-C ,  4-N ) :   3.0601
B(  5-C ,  6-C ) :   2.3475 B(  5-C , 11-H ) :  -0.1082 B(  6-C , 11-H ) :   1.0981

FINAL SINGLE POINT ENERGY      -322.779014261821

DIPOLE MOMENT
-------------
                                X             Y             Z
Electronic contribution:      2.02817      -0.51480      -0.07904
Nuclear contribution   :     -3.21641       1.28123       0.20723
                        -----------------------------------------
Total Dipole Moment    :     -1.18824       0.76643       0.12819
                        -----------------------------------------
Magnitude (a.u.)       :      1.41978
Magnitude (Debye)      :      3.60879

                             ****ORCA TERMINATED NORMALLY****
TOTAL RUN TIME: 0 days 0 hours 0 minutes 5 seconds 472 msec
