                         Program Version 3.0.3 - RELEASE   -
|  1> ! RI PBE def2-SVP def2-SVP/J NBO PAL2
|  2> % maxcore 2000
|  3> % output
|  4>     # printlevel mini
|  5>     print[ P_Basis ] 0
|  6>     print[ P_SCFInfo ] 1
|  7>     print[ P_SCFIterInfo ] 1
|  8>     print[ P_OrbEn ] 0
|  9>     print[ P_Cartesian ] 0
| 10> end
| 11> *xyz 0 1
| 12>  O        1.4616220000    -0.1457940000     0.8334930000
| 13>  C        2.5521600000     0.0807540000    -0.0462150000
| 14>  C        2.9921180000    -1.2175140000    -0.6146590000
| 15>  C        4.2109360000    -1.7162200000    -0.4150140000
| 16>  N        4.6766310000    -2.9058000000    -0.9320070000
| 17>  C        5.9292940000    -3.4436930000    -0.7415110000
| 18>  N        6.9178910000    -3.0045240000    -0.0833220000
| 19>  H        1.0614760000     0.7018920000     1.0426600000
| 20>  H        3.3925050000     0.5568190000     0.4782870000
| 21>  H        2.2446320000     0.7569500000    -0.8573630000
| 22>  H        2.2620220000    -1.7649390000    -1.2061930000
| 23>  H        4.9266120000    -1.1732610000     0.1924650000
| 24>  H        4.0394570000    -3.4412310000    -1.4975450000
| 25>  H        6.0379740000    -4.3974660000    -1.2607040000
| 26>  H        6.7312790000    -2.1129740000     0.3708090000
| 27> *
| 28>
| 29>                          ****END OF INPUT****
 Total Charge           Charge          ....    0
 Multiplicity           Mult            ....    1
 Number of Electrons    NEL             ....   54
 Basis Dimension        Dim             ....  138

MULLIKEN ATOMIC CHARGES
-----------------------
   0 O :   -0.283499
   1 C :    0.188396
   2 C :   -0.101774
   3 C :    0.054213
   4 N :   -0.052357
   5 C :   -0.004674
   6 N :   -0.140918
   7 H :    0.150386
   8 H :   -0.010212
   9 H :    0.007484
  10 H :   -0.007827
  11 H :   -0.005073
  12 H :    0.117844
  13 H :    0.010486
  14 H :    0.077527
Sum of atomic charges:   -0.0000000

LOEWDIN ATOMIC CHARGES
----------------------
   0 O :   -0.134690
   1 C :    0.056388
   2 C :   -0.092338
   3 C :    0.007298
   4 N :    0.027335
   5 C :    0.018969
   6 N :   -0.150895
   7 H :    0.066838
   8 H :    0.005497
   9 H :    0.011436
  10 H :    0.022651
  11 H :    0.021412
  12 H :    0.084868
  13 H :    0.016098
  14 H :    0.039133

  Mayer bond orders larger than 0.1
B(  0-O ,  1-C ) :   1.0670 B(  0-O ,  7-H ) :   0.9790 B(  1-C ,  2-C ) :   1.0813
B(  1-C ,  8-H ) :   0.9290 B(  1-C ,  9-H ) :   0.9151 B(  2-C ,  3-C ) :   1.8096
B(  2-C , 10-H ) :   0.9565 B(  3-C ,  4-N ) :   1.1295 B(  3-C , 11-H ) :   0.9336
B(  4-N ,  5-C ) :   1.1201 B(  4-N , 12-H ) :   0.9219 B(  5-C ,  6-N ) :   2.0082
B(  5-C , 13-H ) :   0.9421 B(  6-N , 14-H ) :   0.9564

FINAL SINGLE POINT ENERGY      -341.258931523796

DIPOLE MOMENT
-------------
                                X             Y             Z
Electronic contribution:      0.70410      -2.08004       0.11980
Nuclear contribution   :     -1.58968       2.67951      -0.64535
                        -----------------------------------------
Total Dipole Moment    :     -0.88558       0.59947      -0.52555
                        -----------------------------------------
Magnitude (a.u.)       :      1.19156
Magnitude (Debye)      :      3.02871

                             ****ORCA TERMINATED NORMALLY****
TOTAL RUN TIME: 0 days 0 hours 0 minutes 6 seconds 488 msec
