                         Program Version 3.0.3 - RELEASE   -
|  1> ! RI PBE def2-SVP def2-SVP/J NBO PAL2
|  2> % maxcore 2000
|  3> % output
|  4>     # printlevel mini
|  5>     print[ P_Basis ] 0
|  6>     print[ P_SCFInfo ] 1
|  7>     print[ P_SCFIterInfo ] 1
|  8>     print[ P_OrbEn ] 0
|  9>     print[ P_Cartesian ] 0
| 10> end
| 11> *xyz 0 1
| 12>  O        3.2838670000     0.1621210000     0.8510860000
| 13>  C        2.4324290000     0.0839440000    -0.2800710000
| 14>  C        2.8287740000    -1.1098760000    -1.1027710000
| 15>  C        1.9048800000    -1.9050730000    -1.6466120000
| 16>  N        4.2036400000    -1.2252990000    -1.2248630000
| 17>  C        4.9506140000    -1.8534140000    -2.1940170000
| 18>  N        4.6005730000    -2.3821260000    -3.2903170000
| 19>  H        3.2166360000     1.0416750000     1.2278890000
| 20>  H        2.5389810000     0.9867790000    -0.8975800000
| 21>  H        1.3833180000    -0.0139820000     0.0151940000
| 22>  H        0.8593450000    -1.7004870000    -1.4584770000
| 23>  H        2.1395740000    -2.7729460000    -2.2447250000
| 24>  H        4.7137180000    -0.7680300000    -0.4847980000
| 25>  H        6.0118940000    -1.8522710000    -1.9360070000
| 26>  H        3.6002460000    -2.2979050000    -3.4509090000
| 27> *
| 28>
| 29>                          ****END OF INPUT****
 Total Charge           Charge          ....    0
 Multiplicity           Mult            ....    1
 Number of Electrons    NEL             ....   54
 Basis Dimension        Dim             ....  138

MULLIKEN ATOMIC CHARGES
-----------------------
   0 O :   -0.283311
   1 C :    0.209440
   2 C :   -0.078258
   3 C :   -0.082408
   4 N :   -0.042498
   5 C :   -0.022360
   6 N :   -0.136794
   7 H :    0.166382
   8 H :    0.025723
   9 H :    0.005791
  10 H :    0.011451
  11 H :    0.025399
  12 H :    0.111955
  13 H :    0.012766
  14 H :    0.076721
Sum of atomic charges:   -0.0000000

LOEWDIN ATOMIC CHARGES
----------------------
   0 O :   -0.120418
   1 C :    0.065458
   2 C :   -0.010192
   3 C :   -0.118045
   4 N :    0.025298
   5 C :    0.018051
   6 N :   -0.147245
   7 H :    0.077229
   8 H :    0.019177
   9 H :    0.016696
  10 H :    0.026556
  11 H :    0.023038
  12 H :    0.071383
  13 H :    0.014559
  14 H :    0.038454

  Mayer bond orders larger than 0.1
B(  0-O ,  1-C ) :   1.0616 B(  0-O ,  7-H ) :   0.9720 B(  1-C ,  2-C ) :   1.0368
B(  1-C ,  8-H ) :   0.9208 B(  1-C ,  9-H ) :   0.9225 B(  2-C ,  3-C ) :   1.8789
B(  2-C ,  4-N ) :   1.1259 B(  3-C , 10-H ) :   0.9161 B(  3-C , 11-H ) :   0.9378
B(  4-N ,  5-C ) :   1.1328 B(  4-N , 12-H ) :   0.8913 B(  5-C ,  6-N ) :   2.0080
B(  5-C , 13-H ) :   0.9412 B(  6-N , 14-H ) :   0.9479

FINAL SINGLE POINT ENERGY      -341.260550913970

DIPOLE MOMENT
-------------
                                X             Y             Z
Electronic contribution:      2.44798      -0.23133       0.55728
Nuclear contribution   :     -2.98211       1.54919       0.48106
                        -----------------------------------------
Total Dipole Moment    :     -0.53414       1.31786       1.03833
                        -----------------------------------------
Magnitude (a.u.)       :      1.76074
Magnitude (Debye)      :      4.47544

                             ****ORCA TERMINATED NORMALLY****
TOTAL RUN TIME: 0 days 0 hours 0 minutes 6 seconds 918 msec
