                         Program Version 3.0.3 - RELEASE   -
|  1> ! RI PBE def2-SVP def2-SVP/J NBO PAL2
|  2> % maxcore 2000
|  3> % output
|  4>     # printlevel mini
|  5>     print[ P_Basis ] 0
|  6>     print[ P_SCFInfo ] 1
|  7>     print[ P_SCFIterInfo ] 1
|  8>     print[ P_OrbEn ] 0
|  9>     print[ P_Cartesian ] 0
| 10> end
| 11> *xyz 0 1
| 12>  O        2.6792010000     0.7953310000    -0.9241600000
| 13>  C        2.3541730000    -0.0336990000     0.1766690000
| 14>  C        3.0318400000     0.5236540000     1.4059200000
| 15>  C        4.5529860000     0.5124590000     1.2905960000
| 16>  N        5.2294400000     1.0303270000     2.4518650000
| 17>  C        5.4091960000     0.3290260000     3.6047790000
| 18>  N        5.1201180000    -0.8808880000     3.8719860000
| 19>  H        2.2696520000     0.4362560000    -1.7139400000
| 20>  H        2.6929770000    -1.0654540000     0.0001220000
| 21>  H        1.2685040000    -0.0641120000     0.3366260000
| 22>  H        2.7216570000    -0.0581880000     2.2788170000
| 23>  H        2.6892060000     1.5506350000     1.5672220000
| 24>  H        4.8574530000     1.1003110000     0.4237100000
| 25>  H        4.9038690000    -0.5101830000     1.1065560000
| 26>  H        5.4627890000     2.0065550000     2.4668250000
| 27>  H        5.8910010000     0.9245790000     4.3838130000
| 28>  H        4.6755390000    -1.3499110000     3.0842960000
| 29> *
| 30>
| 31>                          ****END OF INPUT****
 Total Charge           Charge          ....    0
 Multiplicity           Mult            ....    1
 Number of Electrons    NEL             ....   56
 Basis Dimension        Dim             ....  148

MULLIKEN ATOMIC CHARGES
-----------------------
   0 O :   -0.284687
   1 C :    0.134230
   2 C :   -0.013116
   3 C :    0.060162
   4 N :   -0.121232
   5 C :   -0.020144
   6 N :   -0.166717
   7 H :    0.157297
   8 H :   -0.004449
   9 H :    0.012183
  10 H :    0.018396
  11 H :    0.011973
  12 H :    0.022222
  13 H :    0.009705
  14 H :    0.112712
  15 H :    0.004464
  16 H :    0.067001
Sum of atomic charges:   -0.0000000

LOEWDIN ATOMIC CHARGES
----------------------
   0 O :   -0.131105
   1 C :    0.057100
   2 C :   -0.063373
   3 C :    0.016764
   4 N :   -0.012781
   5 C :    0.009369
   6 N :   -0.182400
   7 H :    0.072648
   8 H :    0.003943
   9 H :    0.008805
  10 H :    0.030394
  11 H :    0.026784
  12 H :    0.028940
  13 H :    0.018664
  14 H :    0.072412
  15 H :    0.012249
  16 H :    0.031589

  Mayer bond orders larger than 0.1
B(  0-O ,  1-C ) :   1.0776 B(  0-O ,  7-H ) :   0.9790 B(  1-C ,  2-C ) :   1.1010
B(  1-C ,  8-H ) :   0.9260 B(  1-C ,  9-H ) :   0.9368 B(  2-C ,  3-C ) :   1.0710
B(  2-C , 10-H ) :   0.9259 B(  2-C , 11-H ) :   0.9209 B(  3-C ,  4-N ) :   1.0310
B(  3-C , 12-H ) :   0.9326 B(  3-C , 13-H ) :   0.9284 B(  4-N ,  5-C ) :   1.1864
B(  4-N ,  6-N ) :   0.1156 B(  4-N , 14-H ) :   0.9327 B(  5-C ,  6-N ) :   1.9680
B(  5-C , 15-H ) :   0.9410 B(  6-N , 16-H ) :   0.9503

FINAL SINGLE POINT ENERGY      -342.472511566662

DIPOLE MOMENT
-------------
                                X             Y             Z
Electronic contribution:      1.98910       0.87096       0.93903
Nuclear contribution   :     -2.54068      -0.31416      -2.16336
                        -----------------------------------------
Total Dipole Moment    :     -0.55158       0.55680      -1.22433
                        -----------------------------------------
Magnitude (a.u.)       :      1.45370
Magnitude (Debye)      :      3.69501

                             ****ORCA TERMINATED NORMALLY****
TOTAL RUN TIME: 0 days 0 hours 0 minutes 7 seconds 610 msec
