                         Program Version 3.0.3 - RELEASE   -
|  1> ! RI PBE def2-SVP def2-SVP/J NBO PAL2
|  2> % maxcore 2000
|  3> % output
|  4>     # printlevel mini
|  5>     print[ P_Basis ] 0
|  6>     print[ P_SCFInfo ] 1
|  7>     print[ P_SCFIterInfo ] 1
|  8>     print[ P_OrbEn ] 0
|  9>     print[ P_Cartesian ] 0
| 10> end
| 11> *xyz 0 1
| 12>  O        2.3882970000     0.9310640000    -1.0830800000
| 13>  C        2.5615320000     0.7274350000     0.0869630000
| 14>  C        2.1543880000    -0.5240010000     0.8051130000
| 15>  C        3.3678990000    -1.2366270000     1.4065170000
| 16>  N        3.0042900000    -2.3650140000     2.2294290000
| 17>  C        2.6176990000    -2.2128480000     3.5147270000
| 18>  O        2.5722080000    -1.1525390000     4.0953850000
| 19>  H        3.0641090000     1.4899930000     0.7227630000
| 20>  H        1.6115350000    -1.1727580000     0.1152800000
| 21>  H        1.4924640000    -0.2388220000     1.6308730000
| 22>  H        3.9305440000    -0.5401800000     2.0328250000
| 23>  H        4.0330650000    -1.5880330000     0.6151140000
| 24>  H        2.9465980000    -3.2803260000     1.8177780000
| 25>  H        2.3505520000    -3.1724460000     3.9948140000
| 26> *
| 27>
| 28>                          ****END OF INPUT****
 Total Charge           Charge          ....    0
 Multiplicity           Mult            ....    1
 Number of Electrons    NEL             ....   54
 Basis Dimension        Dim             ....  133

MULLIKEN ATOMIC CHARGES
-----------------------
   0 O :   -0.156696
   1 C :    0.073779
   2 C :    0.013709
   3 C :    0.055020
   4 N :   -0.130867
   5 C :    0.137887
   6 O :   -0.239411
   7 H :   -0.002864
   8 H :    0.020960
   9 H :    0.055401
  10 H :    0.040573
  11 H :    0.033222
  12 H :    0.117320
  13 H :   -0.018034
Sum of atomic charges:    0.0000000

LOEWDIN ATOMIC CHARGES
----------------------
   0 O :   -0.102570
   1 C :    0.091087
   2 C :   -0.084471
   3 C :    0.029512
   4 N :    0.002796
   5 C :    0.050948
   6 O :   -0.187026
   7 H :   -0.008983
   8 H :    0.030929
   9 H :    0.052071
  10 H :    0.033470
  11 H :    0.030184
  12 H :    0.075483
  13 H :   -0.013430

  Mayer bond orders larger than 0.1
B(  0-O ,  1-C ) :   2.1807 B(  1-C ,  2-C ) :   0.9857 B(  1-C ,  7-H ) :   0.9166
B(  2-C ,  3-C ) :   1.0673 B(  2-C ,  8-H ) :   0.9222 B(  2-C ,  9-H ) :   0.9003
B(  3-C ,  4-N ) :   1.0104 B(  3-C , 10-H ) :   0.9277 B(  3-C , 11-H ) :   0.9438
B(  4-N ,  5-C ) :   1.2206 B(  4-N , 12-H ) :   0.9317 B(  5-C ,  6-O ) :   1.9996
B(  5-C , 13-H ) :   0.9255

FINAL SINGLE POINT ENERGY      -361.143523764938

DIPOLE MOMENT
-------------
                                X             Y             Z
Electronic contribution:     -0.46247       1.25386      -0.00330
Nuclear contribution   :      0.71462      -2.49293      -0.15480
                        -----------------------------------------
Total Dipole Moment    :      0.25215      -1.23907      -0.15810
                        -----------------------------------------
Magnitude (a.u.)       :      1.27431
Magnitude (Debye)      :      3.23904

                             ****ORCA TERMINATED NORMALLY****
TOTAL RUN TIME: 0 days 0 hours 0 minutes 6 seconds 106 msec
