                         Program Version 3.0.3 - RELEASE   -
|  1> ! RI PBE def2-SVP def2-SVP/J NBO PAL2
|  2> % maxcore 2000
|  3> % output
|  4>     # printlevel mini
|  5>     print[ P_Basis ] 0
|  6>     print[ P_SCFInfo ] 1
|  7>     print[ P_SCFIterInfo ] 1
|  8>     print[ P_OrbEn ] 0
|  9>     print[ P_Cartesian ] 0
| 10> end
| 11> *xyz 0 1
| 12>  O        3.7320020000    -0.3927140000    -1.0098930000
| 13>  C        2.5494710000    -0.0928650000    -0.3047070000
| 14>  C        2.8805420000     0.3863290000     1.0654390000
| 15>  C        4.1232470000     0.5013540000     1.5198820000
| 16>  N        4.4668520000     0.9431580000     2.7873920000
| 17>  C        5.7415340000     1.0583390000     3.2457720000
| 18>  O        6.0356700000     1.4435580000     4.3503540000
| 19>  H        3.4951130000    -0.6966650000    -1.8881120000
| 20>  H        1.9006390000    -0.9799310000    -0.2310220000
| 21>  H        1.9659340000     0.6811840000    -0.8277900000
| 22>  H        2.0336630000     0.6453320000     1.6954920000
| 23>  H        4.9652150000     0.2419940000     0.8884400000
| 24>  H        3.7401540000     1.2050120000     3.4382140000
| 25>  H        6.4891550000     0.7575050000     2.4887210000
| 26> *
| 27>
| 28>                          ****END OF INPUT****
 Total Charge           Charge          ....    0
 Multiplicity           Mult            ....    1
 Number of Electrons    NEL             ....   54
 Basis Dimension        Dim             ....  133

MULLIKEN ATOMIC CHARGES
-----------------------
   0 O :   -0.271958
   1 C :    0.209704
   2 C :   -0.178991
   3 C :    0.081986
   4 N :   -0.049276
   5 C :    0.114712
   6 O :   -0.210926
   7 H :    0.161814
   8 H :    0.013830
   9 H :    0.012599
  10 H :   -0.004089
  11 H :    0.019630
  12 H :    0.115158
  13 H :   -0.014194
Sum of atomic charges:   -0.0000000

LOEWDIN ATOMIC CHARGES
----------------------
   0 O :   -0.119940
   1 C :    0.062819
   2 C :   -0.107956
   3 C :    0.006138
   4 N :    0.041937
   5 C :    0.054506
   6 O :   -0.169539
   7 H :    0.076307
   8 H :    0.014361
   9 H :    0.014113
  10 H :    0.025105
  11 H :    0.030316
  12 H :    0.083778
  13 H :   -0.011944

  Mayer bond orders larger than 0.1
B(  0-O ,  1-C ) :   1.1073 B(  0-O ,  7-H ) :   0.9741 B(  1-C ,  2-C ) :   1.0604
B(  1-C ,  8-H ) :   0.9205 B(  1-C ,  9-H ) :   0.9201 B(  2-C ,  3-C ) :   1.8183
B(  2-C , 10-H ) :   0.9478 B(  3-C ,  4-N ) :   1.1105 B(  3-C , 11-H ) :   0.9346
B(  4-N ,  5-C ) :   1.1612 B(  4-N , 12-H ) :   0.9183 B(  5-C ,  6-O ) :   2.0707
B(  5-C , 13-H ) :   0.9205

FINAL SINGLE POINT ENERGY      -361.128196442016

DIPOLE MOMENT
-------------
                                X             Y             Z
Electronic contribution:      3.46173       1.35199       4.14675
Nuclear contribution   :     -4.66681      -1.77562      -5.45564
                        -----------------------------------------
Total Dipole Moment    :     -1.20509      -0.42363      -1.30889
                        -----------------------------------------
Magnitude (a.u.)       :      1.82890
Magnitude (Debye)      :      4.64870

                             ****ORCA TERMINATED NORMALLY****
TOTAL RUN TIME: 0 days 0 hours 0 minutes 6 seconds 550 msec
