                         Program Version 3.0.3 - RELEASE   -
|  1> ! RI PBE def2-SVP def2-SVP/J NBO PAL2
|  2> % maxcore 2000
|  3> % output
|  4>     # printlevel mini
|  5>     print[ P_Basis ] 0
|  6>     print[ P_SCFInfo ] 1
|  7>     print[ P_SCFIterInfo ] 1
|  8>     print[ P_OrbEn ] 0
|  9>     print[ P_Cartesian ] 0
| 10> end
| 11> *xyz 0 1
| 12>  O        3.1427150000    -0.5403270000    -0.8101680000
| 13>  C        2.2979090000     0.0525580000     0.1628640000
| 14>  C        2.8176510000     1.4206180000     0.4956540000
| 15>  C        2.0033460000     2.4521830000     0.7088260000
| 16>  N        4.2073330000     1.4359130000     0.6124400000
| 17>  C        5.0051330000     2.4537930000     1.0318930000
| 18>  O        4.6379770000     3.5254540000     1.4465630000
| 19>  H        2.9437770000    -1.4774970000    -0.8613690000
| 20>  H        2.2928050000    -0.5570770000     1.0778490000
| 21>  H        1.2684980000     0.1423520000    -0.1969450000
| 22>  H        0.9385960000     2.3104750000     0.5732210000
| 23>  H        2.3698970000     3.4157400000     1.0262570000
| 24>  H        4.6661270000     0.6261220000     0.2217080000
| 25>  H        6.0744370000     2.1791930000     0.9577980000
| 26> *
| 27>
| 28>                          ****END OF INPUT****
 Total Charge           Charge          ....    0
 Multiplicity           Mult            ....    1
 Number of Electrons    NEL             ....   54
 Basis Dimension        Dim             ....  133

MULLIKEN ATOMIC CHARGES
-----------------------
   0 O :   -0.282939
   1 C :    0.201618
   2 C :   -0.099736
   3 C :   -0.040076
   4 N :   -0.038755
   5 C :    0.129595
   6 O :   -0.211908
   7 H :    0.166031
   8 H :    0.030569
   9 H :    0.008458
  10 H :    0.004948
  11 H :    0.039135
  12 H :    0.110274
  13 H :   -0.017214
Sum of atomic charges:   -0.0000000

LOEWDIN ATOMIC CHARGES
----------------------
   0 O :   -0.122116
   1 C :    0.062321
   2 C :   -0.014425
   3 C :   -0.088341
   4 N :    0.036474
   5 C :    0.057020
   6 O :   -0.158724
   7 H :    0.077005
   8 H :    0.019266
   9 H :    0.018941
  10 H :    0.024143
  11 H :    0.029509
  12 H :    0.072449
  13 H :   -0.013521

  Mayer bond orders larger than 0.1
B(  0-O ,  1-C ) :   1.0594 B(  0-O ,  7-H ) :   0.9723 B(  1-C ,  2-C ) :   1.0344
B(  1-C ,  8-H ) :   0.9205 B(  1-C ,  9-H ) :   0.9202 B(  2-C ,  3-C ) :   1.9332
B(  2-C ,  4-N ) :   1.0975 B(  3-C , 10-H ) :   0.9129 B(  3-C , 11-H ) :   0.9197
B(  4-N ,  5-C ) :   1.1812 B(  4-N , 12-H ) :   0.8930 B(  5-C ,  6-O ) :   2.0278
B(  5-C , 13-H ) :   0.9236

FINAL SINGLE POINT ENERGY      -361.128898038362

DIPOLE MOMENT
-------------
                                X             Y             Z
Electronic contribution:      3.15131       1.78772       0.33575
Nuclear contribution   :     -3.41797      -3.59168      -0.65280
                        -----------------------------------------
Total Dipole Moment    :     -0.26666      -1.80396      -0.31705
                        -----------------------------------------
Magnitude (a.u.)       :      1.85092
Magnitude (Debye)      :      4.70466

                             ****ORCA TERMINATED NORMALLY****
TOTAL RUN TIME: 0 days 0 hours 0 minutes 6 seconds 579 msec
