                         Program Version 3.0.3 - RELEASE   -
|  1> ! RI PBE def2-SVP def2-SVP/J NBO PAL2
|  2> % maxcore 2000
|  3> % output
|  4>     # printlevel mini
|  5>     print[ P_Basis ] 0
|  6>     print[ P_SCFInfo ] 1
|  7>     print[ P_SCFIterInfo ] 1
|  8>     print[ P_OrbEn ] 0
|  9>     print[ P_Cartesian ] 0
| 10> end
| 11> *xyz 0 1
| 12>  O        2.7760170000    -1.2880110000    -0.3246000000
| 13>  C        2.3433300000     0.0163140000     0.0389550000
| 14>  C        2.9472890000     0.3876200000     1.3749390000
| 15>  C        4.4645770000     0.4932160000     1.3763020000
| 16>  N        5.1069830000    -0.7923420000     1.2369480000
| 17>  C        6.1912940000    -1.1482220000     1.9509960000
| 18>  O        6.7648620000    -0.4499130000     2.7587440000
| 19>  H        2.4155090000    -1.5061350000    -1.1866910000
| 20>  H        1.2486390000     0.0480310000     0.1084820000
| 21>  H        2.6538730000     0.7470910000    -0.7211040000
| 22>  H        2.6281900000    -0.3355100000     2.1320950000
| 23>  H        2.5331140000     1.3587550000     1.6639800000
| 24>  H        4.8198000000     0.9213740000     2.3149210000
| 25>  H        4.7870420000     1.1716080000     0.5747420000
| 26>  H        4.6938110000    -1.4497870000     0.5943220000
| 27>  H        6.5187490000    -2.1803870000     1.7223700000
| 28> *
| 29>
| 30>                          ****END OF INPUT****
 Total Charge           Charge          ....    0
 Multiplicity           Mult            ....    1
 Number of Electrons    NEL             ....   56
 Basis Dimension        Dim             ....  143

MULLIKEN ATOMIC CHARGES
-----------------------
   0 O :   -0.287701
   1 C :    0.133997
   2 C :   -0.059913
   3 C :    0.126320
   4 N :   -0.149720
   5 C :    0.124364
   6 O :   -0.248966
   7 H :    0.165136
   8 H :    0.017251
   9 H :    0.003704
  10 H :    0.030061
  11 H :    0.020084
  12 H :    0.029429
  13 H :    0.013910
  14 H :    0.112640
  15 H :   -0.030595
Sum of atomic charges:   -0.0000000

LOEWDIN ATOMIC CHARGES
----------------------
   0 O :   -0.123755
   1 C :    0.056350
   2 C :   -0.058997
   3 C :    0.028179
   4 N :   -0.001361
   5 C :    0.041437
   6 O :   -0.199430
   7 H :    0.076028
   8 H :    0.011186
   9 H :    0.006848
  10 H :    0.032365
  11 H :    0.038628
  12 H :    0.031388
  13 H :    0.020157
  14 H :    0.059812
  15 H :   -0.018837

  Mayer bond orders larger than 0.1
B(  0-O ,  1-C ) :   1.0535 B(  0-O ,  7-H ) :   0.9737 B(  1-C ,  2-C ) :   1.0986
B(  1-C ,  8-H ) :   0.9367 B(  1-C ,  9-H ) :   0.9308 B(  2-C ,  3-C ) :   1.0991
B(  2-C , 10-H ) :   0.9301 B(  2-C , 11-H ) :   0.9227 B(  3-C ,  4-N ) :   0.9905
B(  3-C , 12-H ) :   0.9236 B(  3-C , 13-H ) :   0.9341 B(  4-N ,  5-C ) :   1.2452
B(  4-N ,  6-O ) :   0.1073 B(  4-N , 14-H ) :   0.9050 B(  5-C ,  6-O ) :   2.0034
B(  5-C , 15-H ) :   0.9235

FINAL SINGLE POINT ENERGY      -362.346075955348

DIPOLE MOMENT
-------------
                                X             Y             Z
Electronic contribution:      4.79066      -2.42401       1.66410
Nuclear contribution   :     -6.38578       2.36884      -3.10509
                        -----------------------------------------
Total Dipole Moment    :     -1.59512      -0.05518      -1.44098
                        -----------------------------------------
Magnitude (a.u.)       :      2.15032
Magnitude (Debye)      :      5.46569

                             ****ORCA TERMINATED NORMALLY****
TOTAL RUN TIME: 0 days 0 hours 0 minutes 6 seconds 769 msec
