                         Program Version 3.0.3 - RELEASE   -
|  1> ! RI PBE def2-SVP def2-SVP/J NBO PAL2
|  2> % maxcore 2000
|  3> % output
|  4>     # printlevel mini
|  5>     print[ P_Basis ] 0
|  6>     print[ P_SCFInfo ] 1
|  7>     print[ P_SCFIterInfo ] 1
|  8>     print[ P_OrbEn ] 0
|  9>     print[ P_Cartesian ] 0
| 10> end
| 11> *xyz 0 1
| 12>  O        2.6784800000    -0.4750230000     1.5030470000
| 13>  C        2.2766480000     0.0569200000     0.2571310000
| 14>  C        2.8802360000    -0.8009020000    -0.8403690000
| 15>  C        4.3651270000    -0.7456090000    -0.8597010000
| 16>  N        4.9877180000    -0.3979530000    -1.9119650000
| 17>  N        6.3713080000    -0.4068960000    -1.7267800000
| 18>  C        6.9976600000    -0.0874550000    -2.7797130000
| 19>  H        2.3742670000     0.1073880000     2.2022210000
| 20>  H        2.6145090000     1.0955860000     0.1423310000
| 21>  H        1.1831480000     0.0456790000     0.1576790000
| 22>  H        2.4979930000    -0.4865930000    -1.8135610000
| 23>  H        2.5647030000    -1.8366920000    -0.6662530000
| 24>  H        4.9147920000    -1.0026300000     0.0486130000
| 25>  H        8.0825920000    -0.0640890000    -2.7394050000
| 26>  H        6.4817190000     0.1596580000    -3.7095660000
| 27> *
| 28>
| 29>                          ****END OF INPUT****
 Total Charge           Charge          ....    0
 Multiplicity           Mult            ....    1
 Number of Electrons    NEL             ....   54
 Basis Dimension        Dim             ....  138

MULLIKEN ATOMIC CHARGES
-----------------------
   0 O :   -0.281467
   1 C :    0.116474
   2 C :    0.060694
   3 C :   -0.037144
   4 N :   -0.095789
   5 N :   -0.103630
   6 C :    0.021380
   7 H :    0.159236
   8 H :    0.011815
   9 H :    0.014760
  10 H :    0.016406
  11 H :    0.039836
  12 H :    0.010587
  13 H :    0.046691
  14 H :    0.020152
Sum of atomic charges:    0.0000000

LOEWDIN ATOMIC CHARGES
----------------------
   0 O :   -0.129051
   1 C :    0.062165
   2 C :   -0.062026
   3 C :    0.030524
   4 N :   -0.062375
   5 N :   -0.042629
   6 C :    0.005879
   7 H :    0.074101
   8 H :    0.007783
   9 H :    0.008996
  10 H :    0.037333
  11 H :    0.045630
  12 H :    0.005274
  13 H :    0.020064
  14 H :   -0.001670

  Mayer bond orders larger than 0.1
B(  0-O ,  1-C ) :   1.0838 B(  0-O ,  7-H ) :   0.9794 B(  1-C ,  2-C ) :   1.0740
B(  1-C ,  8-H ) :   0.9325 B(  1-C ,  9-H ) :   0.9364 B(  2-C ,  3-C ) :   1.0323
B(  2-C , 10-H ) :   0.9141 B(  2-C , 11-H ) :   0.9069 B(  3-C ,  4-N ) :   1.8782
B(  3-C ,  6-C ) :   0.1123 B(  3-C , 12-H ) :   0.9421 B(  4-N ,  5-N ) :   0.9774
B(  5-N ,  6-C ) :   1.9324 B(  6-C , 13-H ) :   0.9522 B(  6-C , 14-H ) :   0.9235

FINAL SINGLE POINT ENERGY      -341.224607723162

DIPOLE MOMENT
-------------
                                X             Y             Z
Electronic contribution:      2.93531      -0.67259      -0.13294
Nuclear contribution   :     -3.52853       1.12413       0.34224
                        -----------------------------------------
Total Dipole Moment    :     -0.59322       0.45155       0.20930
                        -----------------------------------------
Magnitude (a.u.)       :      0.77435
Magnitude (Debye)      :      1.96823

                             ****ORCA TERMINATED NORMALLY****
TOTAL RUN TIME: 0 days 0 hours 0 minutes 6 seconds 627 msec
