                         Program Version 3.0.3 - RELEASE   -
|  1> ! RI PBE def2-SVP def2-SVP/J NBO PAL2
|  2> % maxcore 2000
|  3> % output
|  4>     # printlevel mini
|  5>     print[ P_Basis ] 0
|  6>     print[ P_SCFInfo ] 1
|  7>     print[ P_SCFIterInfo ] 1
|  8>     print[ P_OrbEn ] 0
|  9>     print[ P_Cartesian ] 0
| 10> end
| 11> *xyz 0 1
| 12>  O        1.6497130000     3.4644330000     2.2989240000
| 13>  C        2.7928730000     3.1509330000     1.5263860000
| 14>  C        3.0334900000     1.6626260000     1.6368720000
| 15>  C        4.2459170000     1.1882910000     0.8581940000
| 16>  N        5.4691760000     1.7272370000     1.4152660000
| 17>  N        6.5562410000     1.6235310000     0.6331930000
| 18>  C        7.7084980000     1.6157470000     1.1668740000
| 19>  H        1.5134010000     4.4137490000     2.2712450000
| 20>  H        3.6747700000     3.6982310000     1.8807150000
| 21>  H        2.6392760000     3.4182490000     0.4706270000
| 22>  H        2.1488200000     1.1322410000     1.2733140000
| 23>  H        3.1348460000     1.3986900000     2.6960870000
| 24>  H        4.1992240000     1.5268570000    -0.1797350000
| 25>  H        4.2617000000     0.0889700000     0.8340290000
| 26>  H        5.6180770000     1.4916900000     2.3946300000
| 27>  H        8.5714450000     1.5890660000     0.5129930000
| 28>  H        7.8669330000     1.6484600000     2.2500970000
| 29> *
| 30>
| 31>                          ****END OF INPUT****
 Total Charge           Charge          ....    0
 Multiplicity           Mult            ....    1
 Number of Electrons    NEL             ....   56
 Basis Dimension        Dim             ....  148

MULLIKEN ATOMIC CHARGES
-----------------------
   0 O :   -0.280628
   1 C :    0.151845
   2 C :   -0.039472
   3 C :    0.113871
   4 N :   -0.147424
   5 N :   -0.077739
   6 C :   -0.059305
   7 H :    0.153678
   8 H :   -0.000502
   9 H :   -0.006589
  10 H :    0.021937
  11 H :    0.010896
  12 H :    0.015966
  13 H :    0.016924
  14 H :    0.088085
  15 H :    0.039234
  16 H :   -0.000777
Sum of atomic charges:   -0.0000000

LOEWDIN ATOMIC CHARGES
----------------------
   0 O :   -0.131528
   1 C :    0.057159
   2 C :   -0.059994
   3 C :    0.014729
   4 N :    0.003457
   5 N :   -0.026054
   6 C :   -0.080907
   7 H :    0.070308
   8 H :    0.002184
   9 H :    0.003676
  10 H :    0.033554
  11 H :    0.024378
  12 H :    0.027292
  13 H :    0.012928
  14 H :    0.042153
  15 H :    0.017942
  16 H :   -0.011277

  Mayer bond orders larger than 0.1
B(  0-O ,  1-C ) :   1.0927 B(  0-O ,  7-H ) :   0.9807 B(  1-C ,  2-C ) :   1.0817
B(  1-C ,  8-H ) :   0.9354 B(  1-C ,  9-H ) :   0.9348 B(  2-C ,  3-C ) :   1.0751
B(  2-C , 10-H ) :   0.9265 B(  2-C , 11-H ) :   0.9280 B(  3-C ,  4-N ) :   0.9940
B(  3-C , 12-H ) :   0.9254 B(  3-C , 13-H ) :   0.9335 B(  4-N ,  5-N ) :   1.1074
B(  4-N ,  6-C ) :   0.1504 B(  4-N , 14-H ) :   0.9128 B(  5-N ,  6-C ) :   1.8803
B(  6-C , 15-H ) :   0.9582 B(  6-C , 16-H ) :   0.9292

FINAL SINGLE POINT ENERGY      -342.434174263196

DIPOLE MOMENT
-------------
                                X             Y             Z
Electronic contribution:      0.63990       0.72531      -0.10697
Nuclear contribution   :     -0.64533      -0.53591       0.45103
                        -----------------------------------------
Total Dipole Moment    :     -0.00543       0.18940       0.34406
                        -----------------------------------------
Magnitude (a.u.)       :      0.39278
Magnitude (Debye)      :      0.99837

                             ****ORCA TERMINATED NORMALLY****
TOTAL RUN TIME: 0 days 0 hours 0 minutes 7 seconds 486 msec
