                         Program Version 3.0.3 - RELEASE   -
|  1> ! RI PBE def2-SVP def2-SVP/J NBO PAL2
|  2> % maxcore 2000
|  3> % output
|  4>     # printlevel mini
|  5>     print[ P_Basis ] 0
|  6>     print[ P_SCFInfo ] 1
|  7>     print[ P_SCFIterInfo ] 1
|  8>     print[ P_OrbEn ] 0
|  9>     print[ P_Cartesian ] 0
| 10> end
| 11> *xyz 0 1
| 12>  O        2.3718950000    -0.4435190000     1.6725250000
| 13>  C        2.0362060000     0.1408330000     0.4294790000
| 14>  C        2.6718030000    -0.6677360000    -0.6834930000
| 15>  C        4.1291720000    -0.3639560000    -0.9773240000
| 16>  O        5.0165970000    -0.6924680000     0.0794290000
| 17>  N        5.2586570000     0.3963820000     0.8721260000
| 18>  C        5.9608030000     0.1061250000     1.8830940000
| 19>  H        2.1659330000     0.1818630000     2.3700300000
| 20>  H        2.3821300000     1.1819190000     0.3761370000
| 21>  H        0.9452500000     0.1444690000     0.2951090000
| 22>  H        2.1184330000    -0.4812910000    -1.6111380000
| 23>  H        2.5506340000    -1.7305020000    -0.4516310000
| 24>  H        4.2643360000     0.6929130000    -1.2256510000
| 25>  H        4.4624390000    -0.9645900000    -1.8283510000
| 26>  H        6.2150270000     0.9240090000     2.5459660000
| 27>  H        6.3021840000    -0.9060500000     2.0926830000
| 28> *
| 29>
| 30>                          ****END OF INPUT****
 Total Charge           Charge          ....    0
 Multiplicity           Mult            ....    1
 Number of Electrons    NEL             ....   56
 Basis Dimension        Dim             ....  143

MULLIKEN ATOMIC CHARGES
-----------------------
   0 O :   -0.281234
   1 C :    0.147289
   2 C :   -0.046673
   3 C :    0.192179
   4 O :   -0.267071
   5 N :   -0.008110
   6 C :   -0.021648
   7 H :    0.153232
   8 H :   -0.002763
   9 H :   -0.000644
  10 H :    0.010500
  11 H :    0.029343
  12 H :    0.004831
  13 H :    0.015206
  14 H :    0.047040
  15 H :    0.028522
Sum of atomic charges:   -0.0000000

LOEWDIN ATOMIC CHARGES
----------------------
   0 O :   -0.128592
   1 C :    0.053982
   2 C :   -0.071029
   3 C :    0.051546
   4 O :   -0.072789
   5 N :    0.010589
   6 C :   -0.054276
   7 H :    0.069589
   8 H :    0.005071
   9 H :    0.004041
  10 H :    0.035212
  11 H :    0.034290
  12 H :    0.010737
  13 H :    0.021404
  14 H :    0.024138
  15 H :    0.006087

  Mayer bond orders larger than 0.1
B(  0-O ,  1-C ) :   1.0845 B(  0-O ,  7-H ) :   0.9807 B(  1-C ,  2-C ) :   1.0845
B(  1-C ,  8-H ) :   0.9321 B(  1-C ,  9-H ) :   0.9304 B(  2-C ,  3-C ) :   1.1089
B(  2-C , 10-H ) :   0.9193 B(  2-C , 11-H ) :   0.9192 B(  3-C ,  4-O ) :   0.9865
B(  3-C , 12-H ) :   0.9265 B(  3-C , 13-H ) :   0.9422 B(  4-O ,  5-N ) :   0.9810
B(  4-O ,  6-C ) :   0.1251 B(  5-N ,  6-C ) :   1.9325 B(  6-C , 14-H ) :   0.9528
B(  6-C , 15-H ) :   0.9326

FINAL SINGLE POINT ENERGY      -362.251043213565

DIPOLE MOMENT
-------------
                                X             Y             Z
Electronic contribution:      3.06554      -0.58500       1.73524
Nuclear contribution   :     -3.38913       0.97944      -1.72967
                        -----------------------------------------
Total Dipole Moment    :     -0.32359       0.39444       0.00557
                        -----------------------------------------
Magnitude (a.u.)       :      0.51022
Magnitude (Debye)      :      1.29687

                             ****ORCA TERMINATED NORMALLY****
TOTAL RUN TIME: 0 days 0 hours 0 minutes 6 seconds 984 msec
