                         Program Version 3.0.3 - RELEASE   -
|  1> ! RI PBE def2-SVP def2-SVP/J NBO PAL2
|  2> % maxcore 2000
|  3> % output
|  4>     # printlevel mini
|  5>     print[ P_Basis ] 0
|  6>     print[ P_SCFInfo ] 1
|  7>     print[ P_SCFIterInfo ] 1
|  8>     print[ P_OrbEn ] 0
|  9>     print[ P_Cartesian ] 0
| 10> end
| 11> *xyz 0 1
| 12>  O        1.4016790000    -2.6223640000     1.7269200000
| 13>  C        2.3640400000    -2.1108860000     0.8275470000
| 14>  C        3.5627460000    -1.6693650000     1.6367890000
| 15>  N        4.6063160000    -1.1624980000     0.7884160000
| 16>  C        5.8139450000    -0.6301020000     1.4255100000
| 17>  C        6.6434180000    -1.2223240000     0.2772540000
| 18>  C        5.4192240000    -2.1106090000     0.0159790000
| 19>  H        0.6308570000    -2.8972840000     1.2267870000
| 20>  H        1.9770950000    -1.2524910000     0.2636440000
| 21>  H        2.6713040000    -2.8777120000     0.1017170000
| 22>  H        3.9057410000    -2.5179750000     2.2580010000
| 23>  H        3.2509070000    -0.8741710000     2.3213500000
| 24>  H        6.0383360000    -1.1243610000     2.3842740000
| 25>  H        5.8224830000     0.4530650000     1.5741860000
| 26>  H        7.5785540000    -1.7164800000     0.5342520000
| 27>  H        6.8141270000    -0.5046780000    -0.5248730000
| 28>  H        5.5096990000    -3.0894970000     0.5150100000
| 29>  H        5.1041380000    -2.2679800000    -1.0187630000
| 30> *
| 31>
| 32>                          ****END OF INPUT****
 Total Charge           Charge          ....    0
 Multiplicity           Mult            ....    1
 Number of Electrons    NEL             ....   56
 Basis Dimension        Dim             ....  153

MULLIKEN ATOMIC CHARGES
-----------------------
   0 O :   -0.279365
   1 C :    0.145896
   2 C :    0.086504
   3 N :   -0.369510
   4 C :    0.139240
   5 C :   -0.070821
   6 C :    0.130028
   7 H :    0.155575
   8 H :   -0.000513
   9 H :   -0.003033
  10 H :   -0.009651
  11 H :    0.015317
  12 H :   -0.014450
  13 H :    0.018518
  14 H :    0.022930
  15 H :    0.027629
  16 H :   -0.012905
  17 H :    0.018612
Sum of atomic charges:   -0.0000000

LOEWDIN ATOMIC CHARGES
----------------------
   0 O :   -0.128268
   1 C :    0.051378
   2 C :   -0.001445
   3 N :   -0.119455
   4 C :    0.034766
   5 C :   -0.040901
   6 C :    0.029639
   7 H :    0.071095
   8 H :    0.004854
   9 H :    0.002172
  10 H :   -0.001996
  11 H :    0.024790
  12 H :    0.001644
  13 H :    0.011642
  14 H :    0.020459
  15 H :    0.028665
  16 H :    0.001308
  17 H :    0.009653

  Mayer bond orders larger than 0.1
B(  0-O ,  1-C ) :   1.1012 B(  0-O ,  7-H ) :   0.9794 B(  1-C ,  2-C ) :   1.0778
B(  1-C ,  8-H ) :   0.9282 B(  1-C ,  9-H ) :   0.9367 B(  2-C ,  3-N ) :   1.0165
B(  2-C , 10-H ) :   0.9105 B(  2-C , 11-H ) :   0.9325 B(  3-N ,  4-C ) :   1.0130
B(  3-N ,  6-C ) :   1.0063 B(  4-C ,  5-C ) :   1.0984 B(  4-C , 12-H ) :   0.9138
B(  4-C , 13-H ) :   0.9440 B(  5-C ,  6-C ) :   1.1005 B(  5-C , 14-H ) :   0.9506
B(  5-C , 15-H ) :   0.9274 B(  6-C , 16-H ) :   0.9108 B(  6-C , 17-H ) :   0.9441

FINAL SINGLE POINT ENERGY      -326.416333634989

DIPOLE MOMENT
-------------
                                X             Y             Z
Electronic contribution:     -3.08260       0.03502       0.58721
Nuclear contribution   :      3.10529      -0.17549      -1.01276
                        -----------------------------------------
Total Dipole Moment    :      0.02269      -0.14047      -0.42555
                        -----------------------------------------
Magnitude (a.u.)       :      0.44871
Magnitude (Debye)      :      1.14053

                             ****ORCA TERMINATED NORMALLY****
TOTAL RUN TIME: 0 days 0 hours 0 minutes 7 seconds 863 msec
