                         Program Version 3.0.3 - RELEASE   -
|  1> ! RI PBE def2-SVP def2-SVP/J NBO PAL2
|  2> % maxcore 2000
|  3> % output
|  4>     # printlevel mini
|  5>     print[ P_Basis ] 0
|  6>     print[ P_SCFInfo ] 1
|  7>     print[ P_SCFIterInfo ] 1
|  8>     print[ P_OrbEn ] 0
|  9>     print[ P_Cartesian ] 0
| 10> end
| 11> *xyz 0 1
| 12>  O        1.3228430000    -0.3526830000    -0.6660090000
| 13>  C        2.2986050000     0.3431130000    -0.7073900000
| 14>  C        3.1511640000     0.6861060000     0.4885330000
| 15>  N        4.5274550000     0.8525400000     0.1269900000
| 16>  C        5.4676330000     1.3766540000     1.1238050000
| 17>  C        6.5403860000     0.4375860000     0.5527160000
| 18>  C        5.3660630000    -0.3403360000    -0.0569350000
| 19>  H        2.6421930000     0.8097350000    -1.6560760000
| 20>  H        2.9753360000    -0.0625470000     1.2797530000
| 21>  H        2.7710420000     1.6482940000     0.8599490000
| 22>  H        5.1930920000     1.1002570000     2.1534110000
| 23>  H        5.6373670000     2.4555190000     1.0774490000
| 24>  H        7.1776470000    -0.0877770000     1.2611230000
| 25>  H        7.1530150000     0.9232660000    -0.2060820000
| 26>  H        5.0505260000    -1.1777380000     0.5847450000
| 27>  H        5.4534530000    -0.6959700000    -1.0865820000
| 28> *
| 29>
| 30>                          ****END OF INPUT****
 Total Charge           Charge          ....    0
 Multiplicity           Mult            ....    1
 Number of Electrons    NEL             ....   54
 Basis Dimension        Dim             ....  143

MULLIKEN ATOMIC CHARGES
-----------------------
   0 O :   -0.158065
   1 C :    0.072414
   2 C :    0.131694
   3 N :   -0.380099
   4 C :    0.126688
   5 C :   -0.075913
   6 C :    0.134417
   7 H :   -0.007732
   8 H :    0.008478
   9 H :    0.041571
  10 H :   -0.000526
  11 H :    0.024265
  12 H :    0.030833
  13 H :    0.029918
  14 H :    0.000780
  15 H :    0.021277
Sum of atomic charges:    0.0000000

LOEWDIN ATOMIC CHARGES
----------------------
   0 O :   -0.102904
   1 C :    0.084785
   2 C :   -0.031301
   3 N :   -0.121439
   4 C :    0.034271
   5 C :   -0.038601
   6 C :    0.034704
   7 H :   -0.011587
   8 H :    0.011839
   9 H :    0.049147
  10 H :    0.005264
  11 H :    0.013456
  12 H :    0.023117
  13 H :    0.030122
  14 H :    0.005706
  15 H :    0.013423

  Mayer bond orders larger than 0.1
B(  0-O ,  1-C ) :   2.1830 B(  1-C ,  2-C ) :   0.9508 B(  1-C ,  7-H ) :   0.9210
B(  2-C ,  3-N ) :   1.0140 B(  2-C ,  8-H ) :   0.9005 B(  2-C ,  9-H ) :   0.9068
B(  3-N ,  4-C ) :   1.0048 B(  3-N ,  6-C ) :   0.9985 B(  4-C ,  5-C ) :   1.0974
B(  4-C , 10-H ) :   0.9185 B(  4-C , 11-H ) :   0.9450 B(  5-C ,  6-C ) :   1.1013
B(  5-C , 12-H ) :   0.9518 B(  5-C , 13-H ) :   0.9285 B(  6-C , 14-H ) :   0.9197
B(  6-C , 15-H ) :   0.9445

FINAL SINGLE POINT ENERGY      -325.220498969402

DIPOLE MOMENT
-------------
                                X             Y             Z
Electronic contribution:     -6.01872      -0.70920      -2.53379
Nuclear contribution   :      6.95629       1.08123       2.94887
                        -----------------------------------------
Total Dipole Moment    :      0.93757       0.37202       0.41507
                        -----------------------------------------
Magnitude (a.u.)       :      1.09074
Magnitude (Debye)      :      2.77245

                             ****ORCA TERMINATED NORMALLY****
TOTAL RUN TIME: 0 days 0 hours 0 minutes 7 seconds 490 msec
