                         Program Version 3.0.3 - RELEASE   -
|  1> ! RI PBE def2-SVP def2-SVP/J NBO PAL2
|  2> % maxcore 2000
|  3> % output
|  4>     # printlevel mini
|  5>     print[ P_Basis ] 0
|  6>     print[ P_SCFInfo ] 1
|  7>     print[ P_SCFIterInfo ] 1
|  8>     print[ P_OrbEn ] 0
|  9>     print[ P_Cartesian ] 0
| 10> end
| 11> *xyz 0 1
| 12>  O        2.8276190000    -0.4330130000    -0.1960270000
| 13>  C        1.9005100000     0.5722160000    -0.5701270000
| 14>  C        2.6469240000     1.6207960000    -1.3537660000
| 15>  N        3.6402590000     2.2659210000    -0.5217780000
| 16>  C        4.4453710000     3.2164410000    -1.2170460000
| 17>  C        3.9506780000     4.6280910000    -1.2846940000
| 18>  C        5.1191620000     4.2776620000    -0.4108950000
| 19>  H        2.4105640000    -1.0190560000     0.4382970000
| 20>  H        1.4519500000     1.0380420000     0.3164690000
| 21>  H        1.0975330000     0.1531470000    -1.1909910000
| 22>  H        1.9338800000     2.3744760000    -1.7037560000
| 23>  H        3.0827010000     1.1467330000    -2.2505550000
| 24>  H        4.2201180000     1.5534950000    -0.0939480000
| 25>  H        4.9872240000     2.8617810000    -2.0978760000
| 26>  H        3.0104990000     4.8340780000    -0.7886830000
| 27>  H        4.1322590000     5.1964450000    -2.1882260000
| 28>  H        4.9461940000     4.2539620000     0.6575300000
| 29>  H        6.1071260000     4.6025820000    -0.7119080000
| 30> *
| 31>
| 32>                          ****END OF INPUT****
 Total Charge           Charge          ....    0
 Multiplicity           Mult            ....    1
 Number of Electrons    NEL             ....   56
 Basis Dimension        Dim             ....  153

MULLIKEN ATOMIC CHARGES
-----------------------
   0 O :   -0.289728
   1 C :    0.150178
   2 C :    0.098727
   3 N :   -0.220801
   4 C :   -0.059901
   5 C :   -0.027973
   6 C :   -0.023925
   7 H :    0.157421
   8 H :   -0.003673
   9 H :   -0.000395
  10 H :    0.006174
  11 H :   -0.010263
  12 H :    0.104200
  13 H :    0.000268
  14 H :    0.026630
  15 H :    0.031283
  16 H :    0.036253
  17 H :    0.025526
Sum of atomic charges:   -0.0000000

LOEWDIN ATOMIC CHARGES
----------------------
   0 O :   -0.130883
   1 C :    0.051466
   2 C :    0.003888
   3 N :   -0.087042
   4 C :   -0.006455
   5 C :   -0.052676
   6 C :   -0.050747
   7 H :    0.071978
   8 H :    0.005806
   9 H :    0.006564
  10 H :    0.024266
  11 H :    0.003218
  12 H :    0.054018
  13 H :    0.002382
  14 H :    0.026565
  15 H :    0.024369
  16 H :    0.028688
  17 H :    0.024594

  Mayer bond orders larger than 0.1
B(  0-O ,  1-C ) :   1.0762 B(  0-O ,  7-H ) :   0.9798 B(  1-C ,  2-C ) :   1.0939
B(  1-C ,  8-H ) :   0.9270 B(  1-C ,  9-H ) :   0.9296 B(  2-C ,  3-N ) :   1.0340
B(  2-C , 10-H ) :   0.9287 B(  2-C , 11-H ) :   0.9089 B(  3-N ,  4-C ) :   1.0992
B(  3-N , 12-H ) :   0.9303 B(  4-C ,  5-C ) :   1.0009 B(  4-C ,  6-C ) :   1.0005
B(  4-C , 13-H ) :   0.9201 B(  5-C ,  6-C ) :   1.0526 B(  5-C , 14-H ) :   0.9387
B(  5-C , 15-H ) :   0.9481 B(  6-C , 16-H ) :   0.9441 B(  6-C , 17-H ) :   0.9426

FINAL SINGLE POINT ENERGY      -326.421551970078

DIPOLE MOMENT
-------------
                                X             Y             Z
Electronic contribution:      0.36429      -2.78455       1.14742
Nuclear contribution   :     -0.73646       2.43759      -1.02811
                        -----------------------------------------
Total Dipole Moment    :     -0.37216      -0.34695       0.11931
                        -----------------------------------------
Magnitude (a.u.)       :      0.52261
Magnitude (Debye)      :      1.32836

                             ****ORCA TERMINATED NORMALLY****
TOTAL RUN TIME: 0 days 0 hours 0 minutes 7 seconds 706 msec
