                         Program Version 3.0.3 - RELEASE   -
|  1> ! RI PBE def2-SVP def2-SVP/J NBO PAL2
|  2> % maxcore 2000
|  3> % output
|  4>     # printlevel mini
|  5>     print[ P_Basis ] 0
|  6>     print[ P_SCFInfo ] 1
|  7>     print[ P_SCFIterInfo ] 1
|  8>     print[ P_OrbEn ] 0
|  9>     print[ P_Cartesian ] 0
| 10> end
| 11> *xyz 0 1
| 12>  O        1.9652510000     0.4749840000     1.0120110000
| 13>  C        2.0531640000     0.2169460000    -0.1559160000
| 14>  C        3.0162430000    -0.7865410000    -0.7352750000
| 15>  N        3.4294620000    -0.4078160000    -2.0663080000
| 16>  C        4.0751850000    -1.4494740000    -2.8027100000
| 17>  C        3.2029050000    -2.3819970000    -3.5833490000
| 18>  C        4.0433340000    -1.3623510000    -4.2929270000
| 19>  H        1.4002150000     0.7055720000    -0.9116440000
| 20>  H        2.4574530000    -1.7294690000    -0.8125510000
| 21>  H        3.8294360000    -0.9568880000    -0.0147130000
| 22>  H        4.0189430000     0.4151820000    -2.0355740000
| 23>  H        4.9720400000    -1.8896810000    -2.3621610000
| 24>  H        2.1368110000    -2.1970420000    -3.5415450000
| 25>  H        3.4895960000    -3.4240560000    -3.6449670000
| 26>  H        3.5293750000    -0.5091930000    -4.7171490000
| 27>  H        4.9119060000    -1.6990650000    -4.8443320000
| 28> *
| 29>
| 30>                          ****END OF INPUT****
 Total Charge           Charge          ....    0
 Multiplicity           Mult            ....    1
 Number of Electrons    NEL             ....   54
 Basis Dimension        Dim             ....  143

MULLIKEN ATOMIC CHARGES
-----------------------
   0 O :   -0.154186
   1 C :    0.060092
   2 C :    0.133220
   3 N :   -0.224778
   4 C :   -0.071681
   5 C :   -0.037878
   6 C :   -0.021105
   7 H :   -0.009117
   8 H :    0.042114
   9 H :    0.013486
  10 H :    0.110063
  11 H :    0.007261
  12 H :    0.039186
  13 H :    0.040548
  14 H :    0.037972
  15 H :    0.034803
Sum of atomic charges:    0.0000000

LOEWDIN ATOMIC CHARGES
----------------------
   0 O :   -0.102096
   1 C :    0.079784
   2 C :   -0.025180
   3 N :   -0.081643
   4 C :   -0.007790
   5 C :   -0.052660
   6 C :   -0.046894
   7 H :   -0.013136
   8 H :    0.049320
   9 H :    0.016240
  10 H :    0.062008
  11 H :    0.005912
  12 H :    0.029970
  13 H :    0.027960
  14 H :    0.030373
  15 H :    0.027831

  Mayer bond orders larger than 0.1
B(  0-O ,  1-C ) :   2.1843 B(  1-C ,  2-C ) :   0.9494 B(  1-C ,  7-H ) :   0.9214
B(  2-C ,  3-N ) :   0.9996 B(  2-C ,  8-H ) :   0.9047 B(  2-C ,  9-H ) :   0.9083
B(  3-N ,  4-C ) :   1.0997 B(  3-N , 10-H ) :   0.9455 B(  4-C ,  5-C ) :   1.0019
B(  4-C ,  6-C ) :   0.9997 B(  4-C , 11-H ) :   0.9268 B(  5-C ,  6-C ) :   1.0476
B(  5-C , 12-H ) :   0.9398 B(  5-C , 13-H ) :   0.9489 B(  6-C , 14-H ) :   0.9444
B(  6-C , 15-H ) :   0.9452

FINAL SINGLE POINT ENERGY      -325.222299885617

DIPOLE MOMENT
-------------
                                X             Y             Z
Electronic contribution:     -2.11562       3.51370       5.78514
Nuclear contribution   :      2.65246      -3.86182      -6.54294
                        -----------------------------------------
Total Dipole Moment    :      0.53684      -0.34812      -0.75779
                        -----------------------------------------
Magnitude (a.u.)       :      0.99178
Magnitude (Debye)      :      2.52092

                             ****ORCA TERMINATED NORMALLY****
TOTAL RUN TIME: 0 days 0 hours 0 minutes 6 seconds 778 msec
