                         Program Version 3.0.3 - RELEASE   -
|  1> ! RI PBE def2-SVP def2-SVP/J NBO PAL2
|  2> % maxcore 2000
|  3> % output
|  4>     # printlevel mini
|  5>     print[ P_Basis ] 0
|  6>     print[ P_SCFInfo ] 1
|  7>     print[ P_SCFIterInfo ] 1
|  8>     print[ P_OrbEn ] 0
|  9>     print[ P_Cartesian ] 0
| 10> end
| 11> *xyz 0 1
| 12>  O        2.3506350000    -0.9272640000     0.5952800000
| 13>  C        2.1590600000     0.1659360000     0.1330220000
| 14>  C        0.8126710000     0.5025280000    -0.3903250000
| 15>  N       -0.2318550000     0.7618560000    -0.7957430000
| 16>  C        3.1612090000     1.2312260000     0.0347060000
| 17>  C        3.1370110000     2.1843750000    -1.1432830000
| 18>  C        2.7418510000     2.6794150000     0.1905710000
| 19>  H        4.1247370000     0.9363810000     0.4298920000
| 20>  H        2.3582880000     2.0412330000    -1.8823380000
| 21>  H        4.1050110000     2.4562400000    -1.5430780000
| 22>  H        1.6917650000     2.8766090000     0.3680260000
| 23>  H        3.4271170000     3.3054650000     0.7466700000
| 24> *
| 25>
| 26>                          ****END OF INPUT****
 Total Charge           Charge          ....    0
 Multiplicity           Mult            ....    1
 Number of Electrons    NEL             ....   50
 Basis Dimension        Dim             ....  123

MULLIKEN ATOMIC CHARGES
-----------------------
   0 O :   -0.104422
   1 C :    0.138337
   2 C :   -0.202834
   3 N :    0.050120
   4 C :   -0.158413
   5 C :   -0.011851
   6 C :   -0.019196
   7 H :    0.041737
   8 H :    0.075690
   9 H :    0.057609
  10 H :    0.070532
  11 H :    0.062690
Sum of atomic charges:   -0.0000000

LOEWDIN ATOMIC CHARGES
----------------------
   0 O :   -0.074825
   1 C :    0.031121
   2 C :   -0.061528
   3 N :   -0.019006
   4 C :   -0.053945
   5 C :   -0.013152
   6 C :   -0.013619
   7 H :    0.044086
   8 H :    0.039810
   9 H :    0.040573
  10 H :    0.039028
  11 H :    0.041459

  Mayer bond orders larger than 0.1
B(  0-O ,  1-C ) :   2.1865 B(  1-C ,  2-C ) :   0.8869 B(  1-C ,  4-C ) :   1.0573
B(  2-C ,  3-N ) :   3.0078 B(  4-C ,  5-C ) :   0.9189 B(  4-C ,  6-C ) :   0.9241
B(  4-C ,  7-H ) :   0.9357 B(  5-C ,  6-C ) :   1.0460 B(  5-C ,  8-H ) :   0.9431
B(  5-C ,  9-H ) :   0.9446 B(  6-C , 10-H ) :   0.9432 B(  6-C , 11-H ) :   0.9447

FINAL SINGLE POINT ENERGY      -322.828684457666

DIPOLE MOMENT
-------------
                                X             Y             Z
Electronic contribution:     -3.97121      -5.48018       0.85761
Nuclear contribution   :      5.13573       6.49018      -0.88653
                        -----------------------------------------
Total Dipole Moment    :      1.16452       1.01000      -0.02892
                        -----------------------------------------
Magnitude (a.u.)       :      1.54177
Magnitude (Debye)      :      3.91886

                             ****ORCA TERMINATED NORMALLY****
TOTAL RUN TIME: 0 days 0 hours 0 minutes 5 seconds 982 msec
