                         Program Version 3.0.3 - RELEASE   -
|  1> ! RI PBE def2-SVP def2-SVP/J NBO PAL2
|  2> % maxcore 2000
|  3> % output
|  4>     # printlevel mini
|  5>     print[ P_Basis ] 0
|  6>     print[ P_SCFInfo ] 1
|  7>     print[ P_SCFIterInfo ] 1
|  8>     print[ P_OrbEn ] 0
|  9>     print[ P_Cartesian ] 0
| 10> end
| 11> *xyz 0 1
| 12>  O        3.5235720000    -0.7562720000     0.4470000000
| 13>  C        2.3885900000    -0.0101350000     0.0701310000
| 14>  C        1.6748420000     0.4960240000     1.2558440000
| 15>  N        1.1143000000     0.8574430000     2.1922030000
| 16>  C        2.8361030000     1.1009440000    -0.8405580000
| 17>  C        2.0441410000     2.3629280000    -0.9851560000
| 18>  C        3.3726930000     2.3844890000    -0.2953160000
| 19>  H        3.2429960000    -1.5093790000     0.9756060000
| 20>  H        1.6719800000    -0.6431900000    -0.4740130000
| 21>  H        3.3088740000     0.7105590000    -1.7346510000
| 22>  H        1.1617960000     2.4852770000    -0.3681080000
| 23>  H        1.9636910000     2.7899520000    -1.9763990000
| 24>  H        3.3732280000     2.5139160000     0.7802920000
| 25>  H        4.2168950000     2.8302340000    -0.8048850000
| 26> *
| 27>
| 28>                          ****END OF INPUT****
 Total Charge           Charge          ....    0
 Multiplicity           Mult            ....    1
 Number of Electrons    NEL             ....   52
 Basis Dimension        Dim             ....  133

MULLIKEN ATOMIC CHARGES
-----------------------
   0 O :   -0.239550
   1 C :    0.335026
   2 C :   -0.331489
   3 N :    0.038358
   4 C :   -0.190350
   5 C :   -0.014501
   6 C :   -0.023615
   7 H :    0.164247
   8 H :    0.040300
   9 H :    0.036370
  10 H :    0.050119
  11 H :    0.037459
  12 H :    0.057338
  13 H :    0.040287
Sum of atomic charges:    0.0000000

LOEWDIN ATOMIC CHARGES
----------------------
   0 O :   -0.089015
   1 C :    0.032608
   2 C :   -0.061418
   3 N :   -0.054458
   4 C :   -0.041571
   5 C :   -0.036756
   6 C :   -0.033290
   7 H :    0.079044
   8 H :    0.037943
   9 H :    0.035765
  10 H :    0.032955
  11 H :    0.031214
  12 H :    0.034778
  13 H :    0.032199

  Mayer bond orders larger than 0.1
B(  0-O ,  1-C ) :   1.1417 B(  0-O ,  7-H ) :   0.9729 B(  1-C ,  2-C ) :   0.9533
B(  1-C ,  4-C ) :   0.9971 B(  1-C ,  8-H ) :   0.9028 B(  2-C ,  3-N ) :   3.0429
B(  4-C ,  5-C ) :   0.9855 B(  4-C ,  6-C ) :   0.9854 B(  4-C ,  9-H ) :   0.9319
B(  5-C ,  6-C ) :   1.0363 B(  5-C , 10-H ) :   0.9387 B(  5-C , 11-H ) :   0.9444
B(  6-C , 12-H ) :   0.9462 B(  6-C , 13-H ) :   0.9468

FINAL SINGLE POINT ENERGY      -324.018610690776

DIPOLE MOMENT
-------------
                                X             Y             Z
Electronic contribution:     -1.39459      -3.32304       4.08387
Nuclear contribution   :      1.61492       2.82148      -5.03466
                        -----------------------------------------
Total Dipole Moment    :      0.22032      -0.50155      -0.95079
                        -----------------------------------------
Magnitude (a.u.)       :      1.09732
Magnitude (Debye)      :      2.78916

                             ****ORCA TERMINATED NORMALLY****
TOTAL RUN TIME: 0 days 0 hours 0 minutes 5 seconds 793 msec
