                         Program Version 3.0.3 - RELEASE   -
|  1> ! RI PBE def2-SVP def2-SVP/J NBO PAL2
|  2> % maxcore 2000
|  3> % output
|  4>     # printlevel mini
|  5>     print[ P_Basis ] 0
|  6>     print[ P_SCFInfo ] 1
|  7>     print[ P_SCFIterInfo ] 1
|  8>     print[ P_OrbEn ] 0
|  9>     print[ P_Cartesian ] 0
| 10> end
| 11> *xyz 0 1
| 12>  O        0.5268700000    -0.9426860000    -0.1222730000
| 13>  C        1.5868620000    -0.5988100000    -0.5805750000
| 14>  C        1.8024290000     0.7937370000    -1.0001660000
| 15>  N        1.9942140000     1.8786430000    -1.3299090000
| 16>  C        2.7461840000    -1.4963200000    -0.7583160000
| 17>  C        3.1629440000    -2.2471110000     0.4682400000
| 18>  N        2.5090590000    -2.9211200000    -0.6221720000
| 19>  H        3.4972690000    -1.1871100000    -1.4765560000
| 20>  H        2.6029720000    -2.0495430000     1.3766110000
| 21>  H        4.2186220000    -2.4593930000     0.5922270000
| 22>  H        1.5246770000    -3.0608980000    -0.4021010000
| 23> *
| 24>
| 25>                          ****END OF INPUT****
 Total Charge           Charge          ....    0
 Multiplicity           Mult            ....    1
 Number of Electrons    NEL             ....   50
 Basis Dimension        Dim             ....  118

MULLIKEN ATOMIC CHARGES
-----------------------
   0 O :   -0.120690
   1 C :    0.019266
   2 C :   -0.123273
   3 N :    0.074034
   4 C :   -0.092146
   5 C :    0.078594
   6 N :   -0.134506
   7 H :    0.051258
   8 H :    0.060262
   9 H :    0.063286
  10 H :    0.123916
Sum of atomic charges:    0.0000000

LOEWDIN ATOMIC CHARGES
----------------------
   0 O :   -0.084124
   1 C :    0.017721
   2 C :   -0.053582
   3 N :   -0.004516
   4 C :   -0.030537
   5 C :    0.047542
   6 N :   -0.053389
   7 H :    0.040284
   8 H :    0.027000
   9 H :    0.033663
  10 H :    0.059937

  Mayer bond orders larger than 0.1
B(  0-O ,  1-C ) :   2.1649 B(  1-C ,  2-C ) :   0.9251 B(  1-C ,  4-C ) :   0.9910
B(  2-C ,  3-N ) :   3.0298 B(  4-C ,  5-C ) :   0.9856 B(  4-C ,  6-N ) :   1.0263
B(  4-C ,  7-H ) :   0.9329 B(  5-C ,  6-N ) :   0.9994 B(  5-C ,  8-H ) :   0.9382
B(  5-C ,  9-H ) :   0.9430 B(  6-N , 10-H ) :   0.9311

FINAL SINGLE POINT ENERGY      -338.838741063112

DIPOLE MOMENT
-------------
                                X             Y             Z
Electronic contribution:     -2.90321       4.24920      -1.63855
Nuclear contribution   :      3.47089      -5.04488       2.10420
                        -----------------------------------------
Total Dipole Moment    :      0.56768      -0.79568       0.46565
                        -----------------------------------------
Magnitude (a.u.)       :      1.08268
Magnitude (Debye)      :      2.75197

                             ****ORCA TERMINATED NORMALLY****
TOTAL RUN TIME: 0 days 0 hours 0 minutes 5 seconds 446 msec
