                         Program Version 3.0.3 - RELEASE   -
|  1> ! RI PBE def2-SVP def2-SVP/J NBO PAL2
|  2> % maxcore 2000
|  3> % output
|  4>     # printlevel mini
|  5>     print[ P_Basis ] 0
|  6>     print[ P_SCFInfo ] 1
|  7>     print[ P_SCFIterInfo ] 1
|  8>     print[ P_OrbEn ] 0
|  9>     print[ P_Cartesian ] 0
| 10> end
| 11> *xyz 0 1
| 12>  O        3.1525200000     0.9067040000    -0.8247390000
| 13>  C        2.4893940000     0.0050370000     0.0297520000
| 14>  C        1.1128910000    -0.2418520000    -0.4325580000
| 15>  N        0.0394290000    -0.4161390000    -0.8055300000
| 16>  C        3.2983650000    -1.2663980000     0.0802210000
| 17>  C        2.6610580000    -2.5673560000     0.3541030000
| 18>  N        3.2081670000    -2.2675170000    -0.9633750000
| 19>  H        2.6924350000     1.7513650000    -0.8121570000
| 20>  H        2.4181950000     0.4094390000     1.0502060000
| 21>  H        4.3066070000    -1.0794760000     0.4382140000
| 22>  H        1.5822250000    -2.5918680000     0.4738170000
| 23>  H        3.2051020000    -3.3131660000     0.9223870000
| 24>  H        2.4643020000    -2.0463840000    -1.6191500000
| 25> *
| 26>
| 27>                          ****END OF INPUT****
 Total Charge           Charge          ....    0
 Multiplicity           Mult            ....    1
 Number of Electrons    NEL             ....   52
 Basis Dimension        Dim             ....  128

MULLIKEN ATOMIC CHARGES
-----------------------
   0 O :   -0.233527
   1 C :    0.338141
   2 C :   -0.354587
   3 N :    0.046473
   4 C :   -0.132567
   5 C :    0.049480
   6 N :   -0.179036
   7 H :    0.167898
   8 H :    0.044313
   9 H :    0.042107
  10 H :    0.047810
  11 H :    0.042730
  12 H :    0.120765
Sum of atomic charges:   -0.0000000

LOEWDIN ATOMIC CHARGES
----------------------
   0 O :   -0.086151
   1 C :    0.020038
   2 C :   -0.068832
   3 N :   -0.049241
   4 C :   -0.003927
   5 C :    0.007791
   6 N :   -0.081305
   7 H :    0.081257
   8 H :    0.040716
   9 H :    0.032414
  10 H :    0.022228
  11 H :    0.026360
  12 H :    0.058654

  Mayer bond orders larger than 0.1
B(  0-O ,  1-C ) :   1.1552 B(  0-O ,  7-H ) :   0.9726 B(  1-C ,  2-C ) :   0.9294
B(  1-C ,  4-C ) :   0.9554 B(  1-C ,  8-H ) :   0.8930 B(  2-C ,  3-N ) :   3.0391
B(  4-C ,  5-C ) :   1.0442 B(  4-C ,  6-N ) :   0.9871 B(  4-C ,  9-H ) :   0.9235
B(  5-C ,  6-N ) :   1.0156 B(  5-C , 10-H ) :   0.9275 B(  5-C , 11-H ) :   0.9403
B(  6-N , 12-H ) :   0.9471

FINAL SINGLE POINT ENERGY      -340.027506938578

DIPOLE MOMENT
-------------
                                X             Y             Z
Electronic contribution:     -2.27276       2.51155      -1.70988
Nuclear contribution   :      2.58526      -1.89884       2.54394
                        -----------------------------------------
Total Dipole Moment    :      0.31250       0.61271       0.83406
                        -----------------------------------------
Magnitude (a.u.)       :      1.08107
Magnitude (Debye)      :      2.74787

                             ****ORCA TERMINATED NORMALLY****
TOTAL RUN TIME: 0 days 0 hours 0 minutes 6 seconds 126 msec
