                         Program Version 3.0.3 - RELEASE   -
|  1> ! RI PBE def2-SVP def2-SVP/J NBO PAL2
|  2> % maxcore 2000
|  3> % output
|  4>     # printlevel mini
|  5>     print[ P_Basis ] 0
|  6>     print[ P_SCFInfo ] 1
|  7>     print[ P_SCFIterInfo ] 1
|  8>     print[ P_OrbEn ] 0
|  9>     print[ P_Cartesian ] 0
| 10> end
| 11> *xyz 0 1
| 12>  O        0.8659970000    -0.9698070000     0.2277210000
| 13>  C        2.0150920000    -0.6885130000     0.0340220000
| 14>  C        2.8996720000    -1.3915320000    -0.9644160000
| 15>  N        4.2784820000    -1.3755740000    -0.5403190000
| 16>  C        5.1985200000    -1.8124960000    -1.5774140000
| 17>  C        6.5610290000    -1.9106030000    -1.0791720000
| 18>  C        7.6802170000    -2.0129430000    -0.6599940000
| 19>  H        2.5150510000     0.1400250000     0.5800440000
| 20>  H        2.8198520000    -0.8087450000    -1.8934880000
| 21>  H        2.4773990000    -2.3853150000    -1.1775020000
| 22>  H        4.4070550000    -1.9495390000     0.2841680000
| 23>  H        5.1664430000    -1.0823340000    -2.3946340000
| 24>  H        4.9184180000    -2.7845300000    -2.0187700000
| 25>  H        8.6752730000    -2.0953940000    -0.2910360000
| 26> *
| 27>
| 28>                          ****END OF INPUT****
 Total Charge           Charge          ....    0
 Multiplicity           Mult            ....    1
 Number of Electrons    NEL             ....   52
 Basis Dimension        Dim             ....  133

MULLIKEN ATOMIC CHARGES
-----------------------
   0 O :   -0.154505
   1 C :    0.063070
   2 C :    0.127929
   3 N :   -0.295680
   4 C :    0.200484
   5 C :    0.301019
   6 C :   -0.470023
   7 H :   -0.001127
   8 H :    0.039461
   9 H :    0.016306
  10 H :    0.113786
  11 H :    0.036103
  12 H :    0.017429
  13 H :    0.005748
Sum of atomic charges:   -0.0000000

LOEWDIN ATOMIC CHARGES
----------------------
   0 O :   -0.099908
   1 C :    0.083694
   2 C :   -0.027813
   3 N :   -0.092070
   4 C :    0.010320
   5 C :   -0.029326
   6 C :   -0.069594
   7 H :   -0.009385
   8 H :    0.047941
   9 H :    0.016020
  10 H :    0.062724
  11 H :    0.045231
  12 H :    0.024992
  13 H :    0.037174

  Mayer bond orders larger than 0.1
B(  0-O ,  1-C ) :   2.1836 B(  1-C ,  2-C ) :   0.9439 B(  1-C ,  7-H ) :   0.9264
B(  2-C ,  3-N ) :   1.0068 B(  2-C ,  8-H ) :   0.9040 B(  2-C ,  9-H ) :   0.9073
B(  3-N ,  4-C ) :   1.0142 B(  3-N , 10-H ) :   0.9461 B(  4-C ,  5-C ) :   1.0457
B(  4-C , 11-H ) :   0.8919 B(  4-C , 12-H ) :   0.8926 B(  5-C ,  6-C ) :   2.3666
B(  5-C , 13-H ) :  -0.1048 B(  6-C , 13-H ) :   1.0957

FINAL SINGLE POINT ENERGY      -323.975092185223

DIPOLE MOMENT
-------------
                                X             Y             Z
Electronic contribution:     -1.42153       0.57542       1.91736
Nuclear contribution   :      2.13556      -0.83273      -2.28469
                        -----------------------------------------
Total Dipole Moment    :      0.71403      -0.25731      -0.36733
                        -----------------------------------------
Magnitude (a.u.)       :      0.84320
Magnitude (Debye)      :      2.14324

                             ****ORCA TERMINATED NORMALLY****
TOTAL RUN TIME: 0 days 0 hours 0 minutes 6 seconds 382 msec
