                         Program Version 3.0.3 - RELEASE   -
|  1> ! RI PBE def2-SVP def2-SVP/J NBO PAL2
|  2> % maxcore 2000
|  3> % output
|  4>     # printlevel mini
|  5>     print[ P_Basis ] 0
|  6>     print[ P_SCFInfo ] 1
|  7>     print[ P_SCFIterInfo ] 1
|  8>     print[ P_OrbEn ] 0
|  9>     print[ P_Cartesian ] 0
| 10> end
| 11> *xyz 0 1
| 12>  O        2.3672030000     1.1300740000    -0.1165970000
| 13>  C        1.8880180000    -0.1232770000     0.3394720000
| 14>  C        2.4085310000    -0.3348170000     1.7379750000
| 15>  N        3.8507460000    -0.4184790000     1.7366010000
| 16>  C        4.4208820000    -0.5109980000     3.0568090000
| 17>  C        5.9105850000    -0.6198790000     3.0599030000
| 18>  C        6.6789430000    -0.7606660000     1.9893240000
| 19>  H        2.1918190000     1.2061570000    -1.0563640000
| 20>  H        2.2471870000    -0.9363850000    -0.3038570000
| 21>  H        0.7901330000    -0.1431000000     0.3506480000
| 22>  H        1.9953710000    -1.2727330000     2.1259260000
| 23>  H        2.0262670000     0.4771690000     2.3826800000
| 24>  H        4.2199140000     0.3959780000     1.2585320000
| 25>  H        4.0054800000    -1.4003690000     3.5516560000
| 26>  H        4.1339360000     0.3381330000     3.7070250000
| 27>  H        6.3697630000    -0.5706540000     4.0449190000
| 28>  H        6.2530440000    -0.8291150000     0.9948920000
| 29>  H        7.7567850000    -0.8270380000     2.0790660000
| 30> *
| 31>
| 32>                          ****END OF INPUT****
 Total Charge           Charge          ....    0
 Multiplicity           Mult            ....    1
 Number of Electrons    NEL             ....   56
 Basis Dimension        Dim             ....  153

MULLIKEN ATOMIC CHARGES
-----------------------
   0 O :   -0.286337
   1 C :    0.137466
   2 C :    0.082961
   3 N :   -0.273739
   4 C :    0.167693
   5 C :   -0.118468
   6 C :   -0.029539
   7 H :    0.158628
   8 H :    0.003093
   9 H :    0.004715
  10 H :    0.004201
  11 H :   -0.006978
  12 H :    0.107496
  13 H :    0.016067
  14 H :   -0.004596
  15 H :   -0.000162
  16 H :    0.014453
  17 H :    0.023046
Sum of atomic charges:   -0.0000000

LOEWDIN ATOMIC CHARGES
----------------------
   0 O :   -0.129584
   1 C :    0.049864
   2 C :    0.001746
   3 N :   -0.094686
   4 C :    0.009127
   5 C :   -0.040351
   6 C :   -0.072017
   7 H :    0.072753
   8 H :    0.007457
   9 H :    0.007646
  10 H :    0.023170
  11 H :    0.002818
  12 H :    0.052320
  13 H :    0.031749
  14 H :    0.009315
  15 H :    0.025274
  16 H :    0.019571
  17 H :    0.023827

  Mayer bond orders larger than 0.1
B(  0-O ,  1-C ) :   1.0791 B(  0-O ,  7-H ) :   0.9793 B(  1-C ,  2-C ) :   1.0934
B(  1-C ,  8-H ) :   0.9254 B(  1-C ,  9-H ) :   0.9293 B(  2-C ,  3-N ) :   1.0442
B(  2-C , 10-H ) :   0.9294 B(  2-C , 11-H ) :   0.9084 B(  3-N ,  4-C ) :   1.0651
B(  3-N , 12-H ) :   0.9174 B(  4-C ,  5-C ) :   1.0432 B(  4-C , 13-H ) :   0.9101
B(  4-C , 14-H ) :   0.9012 B(  5-C ,  6-C ) :   2.0225 B(  5-C , 15-H ) :   0.9504
B(  6-C , 16-H ) :   0.9322 B(  6-C , 17-H ) :   0.9436

FINAL SINGLE POINT ENERGY      -326.422097643804

DIPOLE MOMENT
-------------
                                X             Y             Z
Electronic contribution:     -0.06454       1.31984      -1.47766
Nuclear contribution   :     -0.42437      -1.32433       1.18835
                        -----------------------------------------
Total Dipole Moment    :     -0.48891      -0.00449      -0.28931
                        -----------------------------------------
Magnitude (a.u.)       :      0.56811
Magnitude (Debye)      :      1.44403

                             ****ORCA TERMINATED NORMALLY****
TOTAL RUN TIME: 0 days 0 hours 0 minutes 7 seconds 644 msec
