                         Program Version 3.0.3 - RELEASE   -
|  1> ! RI PBE def2-SVP def2-SVP/J NBO PAL2
|  2> % maxcore 2000
|  3> % output
|  4>     # printlevel mini
|  5>     print[ P_Basis ] 0
|  6>     print[ P_SCFInfo ] 1
|  7>     print[ P_SCFIterInfo ] 1
|  8>     print[ P_OrbEn ] 0
|  9>     print[ P_Cartesian ] 0
| 10> end
| 11> *xyz 0 1
| 12>  O        2.5138420000    -0.4623630000     1.3719770000
| 13>  C        1.8286050000     0.0473090000     0.2416630000
| 14>  C        2.3757310000    -0.6471880000    -0.9787520000
| 15>  N        3.7718830000    -0.3199290000    -1.1609440000
| 16>  C        4.3794680000    -1.0571340000    -2.2510790000
| 17>  C        5.8112150000    -0.8150470000    -2.3424700000
| 18>  C        6.9954410000    -0.6333600000    -2.4072360000
| 19>  H        2.3208510000     0.0928730000     2.1297620000
| 20>  H        1.9885250000     1.1279700000     0.1411470000
| 21>  H        0.7498280000    -0.1428610000     0.3173410000
| 22>  H        1.8111320000    -0.3110620000    -1.8559430000
| 23>  H        2.1993440000    -1.7332110000    -0.8768770000
| 24>  H        4.2688280000    -0.5097630000    -0.2984500000
| 25>  H        3.9069610000    -0.7438860000    -3.1901820000
| 26>  H        4.2159160000    -2.1477860000    -2.1758300000
| 27>  H        8.0445480000    -0.4654520000    -2.4675150000
| 28> *
| 29>
| 30>                          ****END OF INPUT****
 Total Charge           Charge          ....    0
 Multiplicity           Mult            ....    1
 Number of Electrons    NEL             ....   54
 Basis Dimension        Dim             ....  143

MULLIKEN ATOMIC CHARGES
-----------------------
   0 O :   -0.287340
   1 C :    0.136954
   2 C :    0.086679
   3 N :   -0.287686
   4 C :    0.201781
   5 C :    0.315328
   6 C :   -0.484513
   7 H :    0.159459
   8 H :    0.012360
   9 H :    0.004308
  10 H :    0.005102
  11 H :   -0.005690
  12 H :    0.106771
  13 H :    0.022467
  14 H :    0.014942
  15 H :   -0.000922
Sum of atomic charges:    0.0000000

LOEWDIN ATOMIC CHARGES
----------------------
   0 O :   -0.128660
   1 C :    0.050600
   2 C :    0.000035
   3 N :   -0.095710
   4 C :    0.008115
   5 C :   -0.024237
   6 C :   -0.080906
   7 H :    0.073353
   8 H :    0.010001
   9 H :    0.008193
  10 H :    0.023888
  11 H :    0.003326
  12 H :    0.054336
  13 H :    0.041058
  14 H :    0.022540
  15 H :    0.034067

  Mayer bond orders larger than 0.1
B(  0-O ,  1-C ) :   1.0805 B(  0-O ,  7-H ) :   0.9789 B(  1-C ,  2-C ) :   1.0935
B(  1-C ,  8-H ) :   0.9292 B(  1-C ,  9-H ) :   0.9276 B(  2-C ,  3-N ) :   1.0352
B(  2-C , 10-H ) :   0.9269 B(  2-C , 11-H ) :   0.9072 B(  3-N ,  4-C ) :   1.0161
B(  3-N , 12-H ) :   0.9315 B(  4-C ,  5-C ) :   1.0412 B(  4-C , 13-H ) :   0.8909
B(  4-C , 14-H ) :   0.8893 B(  5-C ,  6-C ) :   2.3593 B(  5-C , 15-H ) :  -0.1080
B(  6-C , 15-H ) :   1.0991

FINAL SINGLE POINT ENERGY      -325.175315068696

DIPOLE MOMENT
-------------
                                X             Y             Z
Electronic contribution:      4.13071       0.09348      -0.07628
Nuclear contribution   :     -4.67995       0.07173       0.41072
                        -----------------------------------------
Total Dipole Moment    :     -0.54925       0.16521       0.33444
                        -----------------------------------------
Magnitude (a.u.)       :      0.66394
Magnitude (Debye)      :      1.68760

                             ****ORCA TERMINATED NORMALLY****
TOTAL RUN TIME: 0 days 0 hours 0 minutes 7 seconds 58 msec
