                         Program Version 3.0.3 - RELEASE   -
|  1> ! RI PBE def2-SVP def2-SVP/J NBO PAL2
|  2> % maxcore 2000
|  3> % output
|  4>     # printlevel mini
|  5>     print[ P_Basis ] 0
|  6>     print[ P_SCFInfo ] 1
|  7>     print[ P_SCFIterInfo ] 1
|  8>     print[ P_OrbEn ] 0
|  9>     print[ P_Cartesian ] 0
| 10> end
| 11> *xyz 0 1
| 12>  O        3.5465830000    -3.6180480000     0.5740080000
| 13>  C        2.7037580000    -3.1062870000    -0.1096610000
| 14>  C        2.9559560000    -1.9211770000    -1.0108230000
| 15>  N        4.3115390000    -1.4518170000    -1.0920860000
| 16>  C        5.1920390000    -2.3474450000    -1.8203940000
| 17>  C        6.5279270000    -1.7740650000    -1.9425670000
| 18>  N        7.5875380000    -1.3381720000    -2.0256730000
| 19>  H        1.6538180000    -3.4741020000    -0.0976260000
| 20>  H        2.3021310000    -1.1127220000    -0.6548920000
| 21>  H        2.5788270000    -2.1655610000    -2.0124030000
| 22>  H        4.6814500000    -1.2981820000    -0.1614110000
| 23>  H        4.7955190000    -2.4833740000    -2.8323790000
| 24>  H        5.2951260000    -3.3456580000    -1.3715030000
| 25> *
| 26>
| 27>                          ****END OF INPUT****
 Total Charge           Charge          ....    0
 Multiplicity           Mult            ....    1
 Number of Electrons    NEL             ....   52
 Basis Dimension        Dim             ....  128

MULLIKEN ATOMIC CHARGES
-----------------------
   0 O :   -0.162050
   1 C :    0.061524
   2 C :    0.084277
   3 N :   -0.246835
   4 C :    0.180776
   5 C :   -0.280143
   6 N :    0.060904
   7 H :   -0.003835
   8 H :    0.056905
   9 H :    0.035966
  10 H :    0.119946
  11 H :    0.042345
  12 H :    0.050221
Sum of atomic charges:   -0.0000000

LOEWDIN ATOMIC CHARGES
----------------------
   0 O :   -0.105271
   1 C :    0.076756
   2 C :   -0.036608
   3 N :   -0.075417
   4 C :   -0.001238
   5 C :   -0.046036
   6 N :   -0.053767
   7 H :   -0.008880
   8 H :    0.051473
   9 H :    0.043985
  10 H :    0.066285
  11 H :    0.052386
  12 H :    0.036332

  Mayer bond orders larger than 0.1
B(  0-O ,  1-C ) :   2.1670 B(  1-C ,  2-C ) :   0.9387 B(  1-C ,  7-H ) :   0.9106
B(  2-C ,  3-N ) :   1.1227 B(  2-C ,  8-H ) :   0.9115 B(  2-C ,  9-H ) :   0.9098
B(  3-N ,  4-C ) :   1.0439 B(  3-N , 10-H ) :   0.9374 B(  4-C ,  5-C ) :   1.1288
B(  4-C , 11-H ) :   0.8851 B(  4-C , 12-H ) :   0.8844 B(  5-C ,  6-N ) :   3.0611

FINAL SINGLE POINT ENERGY      -340.056182508459

DIPOLE MOMENT
-------------
                                X             Y             Z
Electronic contribution:      4.23755       0.06721       0.76380
Nuclear contribution   :     -6.04046      -0.36077      -0.91501
                        -----------------------------------------
Total Dipole Moment    :     -1.80291      -0.29355      -0.15121
                        -----------------------------------------
Magnitude (a.u.)       :      1.83290
Magnitude (Debye)      :      4.65887

                             ****ORCA TERMINATED NORMALLY****
TOTAL RUN TIME: 0 days 0 hours 0 minutes 6 seconds 566 msec
