                         Program Version 3.0.3 - RELEASE   -
|  1> ! RI PBE def2-SVP def2-SVP/J NBO PAL2
|  2> % maxcore 2000
|  3> % output
|  4>     # printlevel mini
|  5>     print[ P_Basis ] 0
|  6>     print[ P_SCFInfo ] 1
|  7>     print[ P_SCFIterInfo ] 1
|  8>     print[ P_OrbEn ] 0
|  9>     print[ P_Cartesian ] 0
| 10> end
| 11> *xyz 0 1
| 12>  O        2.5709400000     0.1866700000    -1.3251780000
| 13>  C        2.0583610000    -0.1455970000    -0.0480630000
| 14>  C        2.6310180000     0.8388200000     0.9391850000
| 15>  N        4.0710570000     0.7006180000     0.9969610000
| 16>  C        4.6916720000     1.7127790000     1.8191930000
| 17>  C        6.1439150000     1.5736860000     1.8308950000
| 18>  N        7.2892390000     1.4829930000     1.8278720000
| 19>  H        2.3776390000    -0.5266280000    -1.9366140000
| 20>  H        2.3550040000    -1.1607860000     0.2427010000
| 21>  H        0.9627300000    -0.0814010000    -0.0324520000
| 22>  H        2.2098310000     0.6332690000     1.9294380000
| 23>  H        2.3116030000     1.8557290000     0.6513910000
| 24>  H        4.4397920000     0.7383530000     0.0534770000
| 25>  H        4.3375100000     1.6061170000     2.8507070000
| 26>  H        4.4584800000     2.7479560000     1.5136860000
| 27> *
| 28>
| 29>                          ****END OF INPUT****
 Total Charge           Charge          ....    0
 Multiplicity           Mult            ....    1
 Number of Electrons    NEL             ....   54
 Basis Dimension        Dim             ....  138

MULLIKEN ATOMIC CHARGES
-----------------------
   0 O :   -0.288548
   1 C :    0.146899
   2 C :    0.089138
   3 N :   -0.292754
   4 C :    0.184200
   5 C :   -0.271468
   6 N :    0.055932
   7 H :    0.163523
   8 H :    0.008183
   9 H :    0.010750
  10 H :    0.010306
  11 H :   -0.002765
  12 H :    0.115495
  13 H :    0.040838
  14 H :    0.030271
Sum of atomic charges:   -0.0000000

LOEWDIN ATOMIC CHARGES
----------------------
   0 O :   -0.127040
   1 C :    0.053420
   2 C :    0.002432
   3 N :   -0.090628
   4 C :   -0.002149
   5 C :   -0.045577
   6 N :   -0.058820
   7 H :    0.075888
   8 H :    0.010369
   9 H :    0.010999
  10 H :    0.026014
  11 H :    0.005645
  12 H :    0.057821
  13 H :    0.051104
  14 H :    0.030521

  Mayer bond orders larger than 0.1
B(  0-O ,  1-C ) :   1.0795 B(  0-O ,  7-H ) :   0.9778 B(  1-C ,  2-C ) :   1.0918
B(  1-C ,  8-H ) :   0.9280 B(  1-C ,  9-H ) :   0.9285 B(  2-C ,  3-N ) :   1.0312
B(  2-C , 10-H ) :   0.9296 B(  2-C , 11-H ) :   0.9109 B(  3-N ,  4-C ) :   1.0465
B(  3-N , 12-H ) :   0.9284 B(  4-C ,  5-C ) :   1.1038 B(  4-C , 13-H ) :   0.8876
B(  4-C , 14-H ) :   0.8889 B(  5-C ,  6-N ) :   3.0640

FINAL SINGLE POINT ENERGY      -341.254259489693

DIPOLE MOMENT
-------------
                                X             Y             Z
Electronic contribution:      6.95439       0.86823       0.63241
Nuclear contribution   :     -8.76500      -1.09361      -0.94183
                        -----------------------------------------
Total Dipole Moment    :     -1.81061      -0.22538      -0.30942
                        -----------------------------------------
Magnitude (a.u.)       :      1.85063
Magnitude (Debye)      :      4.70394

                             ****ORCA TERMINATED NORMALLY****
TOTAL RUN TIME: 0 days 0 hours 0 minutes 6 seconds 769 msec
