                         Program Version 3.0.3 - RELEASE   -
|  1> ! RI PBE def2-SVP def2-SVP/J NBO PAL2
|  2> % maxcore 2000
|  3> % output
|  4>     # printlevel mini
|  5>     print[ P_Basis ] 0
|  6>     print[ P_SCFInfo ] 1
|  7>     print[ P_SCFIterInfo ] 1
|  8>     print[ P_OrbEn ] 0
|  9>     print[ P_Cartesian ] 0
| 10> end
| 11> *xyz 0 1
| 12>  O        2.0629960000     1.5479270000     0.5382500000
| 13>  C        1.1213610000     1.8534000000    -0.4752870000
| 14>  C        1.7687890000     1.5633840000    -1.8052550000
| 15>  N        2.9289120000     2.4091930000    -1.9975950000
| 16>  C        3.7000850000     2.1239890000    -3.1946840000
| 17>  C        3.0491360000     2.7892940000    -4.3965360000
| 18>  O        2.8206250000     4.1507200000    -4.1376570000
| 19>  H        1.7329770000     1.8715810000     1.3786320000
| 20>  H        0.8339500000     2.9118560000    -0.4351110000
| 21>  H        0.2161890000     1.2415400000    -0.3691630000
| 22>  H        1.0361510000     1.7543100000    -2.5954400000
| 23>  H        2.0239430000     0.4908720000    -1.8504920000
| 24>  H        3.5089370000     2.3476460000    -1.1714990000
| 25>  H        3.8201010000     1.0442000000    -3.3816100000
| 26>  H        4.6968020000     2.5529020000    -3.0600060000
| 27>  H        2.1086930000     2.2761680000    -4.6510600000
| 28>  H        3.7054680000     2.7097070000    -5.2674890000
| 29>  H        2.6159950000     4.1832300000    -3.1909970000
| 30> *
| 31>
| 32>                          ****END OF INPUT****
 Total Charge           Charge          ....    0
 Multiplicity           Mult            ....    1
 Number of Electrons    NEL             ....   58
 Basis Dimension        Dim             ....  153

MULLIKEN ATOMIC CHARGES
-----------------------
   0 O :   -0.287940
   1 C :    0.144934
   2 C :    0.067389
   3 N :   -0.276607
   4 C :    0.038946
   5 C :    0.167753
   6 O :   -0.292416
   7 H :    0.160780
   8 H :    0.002249
   9 H :    0.004885
  10 H :    0.025339
  11 H :    0.002169
  12 H :    0.107778
  13 H :   -0.006392
  14 H :    0.012608
  15 H :   -0.010368
  16 H :    0.007003
  17 H :    0.131888
Sum of atomic charges:   -0.0000000

LOEWDIN ATOMIC CHARGES
----------------------
   0 O :   -0.128807
   1 C :    0.052762
   2 C :   -0.000386
   3 N :   -0.088941
   4 C :   -0.009564
   5 C :    0.043189
   6 O :   -0.132933
   7 H :    0.074191
   8 H :    0.007632
   9 H :    0.009481
  10 H :    0.026229
  11 H :    0.008358
  12 H :    0.053751
  13 H :    0.005993
  14 H :    0.023460
  15 H :   -0.003248
  16 H :    0.017744
  17 H :    0.041090

  Mayer bond orders larger than 0.1
B(  0-O ,  1-C ) :   1.0797 B(  0-O ,  7-H ) :   0.9778 B(  1-C ,  2-C ) :   1.0977
B(  1-C ,  8-H ) :   0.9273 B(  1-C ,  9-H ) :   0.9302 B(  2-C ,  3-N ) :   1.0199
B(  2-C , 10-H ) :   0.9318 B(  2-C , 11-H ) :   0.9118 B(  3-N ,  4-C ) :   1.0639
B(  3-N , 12-H ) :   0.9320 B(  3-N , 17-H ) :   0.1096 B(  4-C ,  5-C ) :   1.0885
B(  4-C , 13-H ) :   0.9118 B(  4-C , 14-H ) :   0.9332 B(  5-C ,  6-O ) :   1.0848
B(  5-C , 15-H ) :   0.9153 B(  5-C , 16-H ) :   0.9393 B(  6-O , 17-H ) :   0.9551

FINAL SINGLE POINT ENERGY      -363.505362596016

DIPOLE MOMENT
-------------
                                X             Y             Z
Electronic contribution:      0.62953       1.89515       1.56857
Nuclear contribution   :     -0.98841      -2.44320      -0.59067
                        -----------------------------------------
Total Dipole Moment    :     -0.35888      -0.54804       0.97790
                        -----------------------------------------
Magnitude (a.u.)       :      1.17705
Magnitude (Debye)      :      2.99181

                             ****ORCA TERMINATED NORMALLY****
TOTAL RUN TIME: 0 days 0 hours 0 minutes 7 seconds 247 msec
