                         Program Version 3.0.3 - RELEASE   -
|  1> ! RI PBE def2-SVP def2-SVP/J NBO PAL2
|  2> % maxcore 2000
|  3> % output
|  4>     # printlevel mini
|  5>     print[ P_Basis ] 0
|  6>     print[ P_SCFInfo ] 1
|  7>     print[ P_SCFIterInfo ] 1
|  8>     print[ P_OrbEn ] 0
|  9>     print[ P_Cartesian ] 0
| 10> end
| 11> *xyz 0 1
| 12>  O        1.6060940000     1.6683650000    -3.7772300000
| 13>  C        2.3849360000     1.2926960000    -2.9465820000
| 14>  C        2.6350870000    -0.1566240000    -2.6054970000
| 15>  N        4.0107470000    -0.3622390000    -2.2028860000
| 16>  C        4.9263180000    -0.4841350000    -3.3052360000
| 17>  C        4.9551360000    -1.8328380000    -3.9835340000
| 18>  O        4.3499080000    -2.7908750000    -3.5891490000
| 19>  H        2.9853830000     2.0078030000    -2.3422960000
| 20>  H        2.2886890000    -0.7862130000    -3.4357910000
| 21>  H        1.9877560000    -0.3747850000    -1.7472070000
| 22>  H        4.0786900000    -1.1872730000    -1.6216010000
| 23>  H        5.9578280000    -0.2827620000    -2.9798630000
| 24>  H        4.7181930000     0.2791360000    -4.0652630000
| 25>  H        5.6162450000    -1.8996450000    -4.8753440000
| 26> *
| 27>
| 28>                          ****END OF INPUT****
 Total Charge           Charge          ....    0
 Multiplicity           Mult            ....    1
 Number of Electrons    NEL             ....   54
 Basis Dimension        Dim             ....  133

MULLIKEN ATOMIC CHARGES
-----------------------
   0 O :   -0.155257
   1 C :    0.063667
   2 C :    0.080949
   3 N :   -0.222088
   4 C :    0.072394
   5 C :    0.063413
   6 O :   -0.163495
   7 H :   -0.008093
   8 H :    0.023268
   9 H :    0.050653
  10 H :    0.107401
  11 H :    0.048989
  12 H :    0.042502
  13 H :   -0.004303
Sum of atomic charges:    0.0000000

LOEWDIN ATOMIC CHARGES
----------------------
   0 O :   -0.102125
   1 C :    0.077033
   2 C :   -0.027728
   3 N :   -0.081050
   4 C :   -0.036432
   5 C :    0.077222
   6 O :   -0.106267
   7 H :   -0.013162
   8 H :    0.018894
   9 H :    0.052190
  10 H :    0.059430
  11 H :    0.047125
  12 H :    0.044082
  13 H :   -0.009212

  Mayer bond orders larger than 0.1
B(  0-O ,  1-C ) :   2.1829 B(  1-C ,  2-C ) :   0.9505 B(  1-C ,  7-H ) :   0.9162
B(  2-C ,  3-N ) :   1.0501 B(  2-C ,  8-H ) :   0.9090 B(  2-C ,  9-H ) :   0.9125
B(  3-N ,  4-C ) :   1.1134 B(  3-N , 10-H ) :   0.9373 B(  4-C ,  5-C ) :   0.9446
B(  4-C , 11-H ) :   0.9087 B(  4-C , 12-H ) :   0.9126 B(  5-C ,  6-O ) :   2.1737
B(  5-C , 13-H ) :   0.9127

FINAL SINGLE POINT ENERGY      -361.105011709224

DIPOLE MOMENT
-------------
                                X             Y             Z
Electronic contribution:     -1.77133      -0.52604      -0.94564
Nuclear contribution   :      2.63676       0.45439       1.28336
                        -----------------------------------------
Total Dipole Moment    :      0.86543      -0.07166       0.33772
                        -----------------------------------------
Magnitude (a.u.)       :      0.93175
Magnitude (Debye)      :      2.36833

                             ****ORCA TERMINATED NORMALLY****
TOTAL RUN TIME: 0 days 0 hours 0 minutes 6 seconds 137 msec
