                         Program Version 3.0.3 - RELEASE   -
|  1> ! RI PBE def2-SVP def2-SVP/J NBO PAL2
|  2> % maxcore 2000
|  3> % output
|  4>     # printlevel mini
|  5>     print[ P_Basis ] 0
|  6>     print[ P_SCFInfo ] 1
|  7>     print[ P_SCFIterInfo ] 1
|  8>     print[ P_OrbEn ] 0
|  9>     print[ P_Cartesian ] 0
| 10> end
| 11> *xyz 0 1
| 12>  O        1.8259430000     0.2936860000    -0.9982720000
| 13>  C        1.5067270000    -0.0603870000     0.3359710000
| 14>  C        2.5012310000     0.6240240000     1.2380400000
| 15>  N        3.8417810000     0.1526850000     0.9594300000
| 16>  C        4.8627630000     0.8318760000     1.7152240000
| 17>  C        4.9512330000     0.2982010000     3.1250370000
| 18>  O        5.3400530000     0.9289920000     4.0676930000
| 19>  H        1.3092360000    -0.2489090000    -1.5970620000
| 20>  H        1.5764220000    -1.1459040000     0.4797750000
| 21>  H        0.4915080000     0.2643550000     0.5980700000
| 22>  H        2.2435040000     0.3970560000     2.2787070000
| 23>  H        2.4043450000     1.7163410000     1.1134360000
| 24>  H        4.0112920000     0.2311020000    -0.0344040000
| 25>  H        4.7574830000     1.9273280000     1.7647920000
| 26>  H        5.8399960000     0.6227610000     1.2616190000
| 27>  H        4.6391720000    -0.7656260000     3.2214330000
| 28> *
| 29>
| 30>                          ****END OF INPUT****
 Total Charge           Charge          ....    0
 Multiplicity           Mult            ....    1
 Number of Electrons    NEL             ....   56
 Basis Dimension        Dim             ....  143

MULLIKEN ATOMIC CHARGES
-----------------------
   0 O :   -0.289238
   1 C :    0.144740
   2 C :    0.074291
   3 N :   -0.263213
   4 C :    0.093944
   5 C :    0.056946
   6 O :   -0.158410
   7 H :    0.161757
   8 H :    0.007737
   9 H :    0.001711
  10 H :    0.012984
  11 H :    0.004372
  12 H :    0.106658
  13 H :    0.011462
  14 H :    0.042142
  15 H :   -0.007883
Sum of atomic charges:   -0.0000000

LOEWDIN ATOMIC CHARGES
----------------------
   0 O :   -0.128905
   1 C :    0.052455
   2 C :    0.001209
   3 N :   -0.095761
   4 C :   -0.030646
   5 C :    0.078569
   6 O :   -0.105759
   7 H :    0.074427
   8 H :    0.009078
   9 H :    0.008451
  10 H :    0.024700
  11 H :    0.007631
  12 H :    0.054564
  13 H :    0.015347
  14 H :    0.048329
  15 H :   -0.013688

  Mayer bond orders larger than 0.1
B(  0-O ,  1-C ) :   1.0797 B(  0-O ,  7-H ) :   0.9784 B(  1-C ,  2-C ) :   1.0949
B(  1-C ,  8-H ) :   0.9272 B(  1-C ,  9-H ) :   0.9297 B(  2-C ,  3-N ) :   1.0336
B(  2-C , 10-H ) :   0.9300 B(  2-C , 11-H ) :   0.9112 B(  3-N ,  4-C ) :   1.0720
B(  3-N , 12-H ) :   0.9275 B(  4-C ,  5-C ) :   0.9486 B(  4-C , 13-H ) :   0.8988
B(  4-C , 14-H ) :   0.9125 B(  5-C ,  6-O ) :   2.1817 B(  5-C , 15-H ) :   0.9153

FINAL SINGLE POINT ENERGY      -362.302790109524

DIPOLE MOMENT
-------------
                                X             Y             Z
Electronic contribution:      3.29473       0.39217       2.56326
Nuclear contribution   :     -4.04719      -0.87330      -3.65480
                        -----------------------------------------
Total Dipole Moment    :     -0.75246      -0.48114      -1.09154
                        -----------------------------------------
Magnitude (a.u.)       :      1.41037
Magnitude (Debye)      :      3.58488

                             ****ORCA TERMINATED NORMALLY****
TOTAL RUN TIME: 0 days 0 hours 0 minutes 7 seconds 161 msec
