                         Program Version 3.0.3 - RELEASE   -
|  1> ! RI PBE def2-SVP def2-SVP/J NBO PAL2
|  2> % maxcore 2000
|  3> % output
|  4>     # printlevel mini
|  5>     print[ P_Basis ] 0
|  6>     print[ P_SCFInfo ] 1
|  7>     print[ P_SCFIterInfo ] 1
|  8>     print[ P_OrbEn ] 0
|  9>     print[ P_Cartesian ] 0
| 10> end
| 11> *xyz 0 1
| 12>  O        2.8413940000     0.5211730000     0.8335120000
| 13>  C        2.6433960000    -0.0869450000    -0.1727550000
| 14>  C        1.2496190000    -0.2894730000    -0.6381080000
| 15>  N        0.1741920000    -0.4545380000    -1.0115500000
| 16>  N        3.6637010000    -0.6346170000    -0.9616400000
| 17>  C        3.3653500000    -1.9022940000    -1.6547280000
| 18>  C        3.4409540000    -0.6590400000    -2.4198110000
| 19>  H        2.3822790000    -2.3401090000    -1.5095140000
| 20>  H        4.1967460000    -2.5958180000    -1.6387440000
| 21>  H        2.5095060000    -0.2476610000    -2.7971330000
| 22>  H        4.3297650000    -0.4080770000    -2.9850380000
| 23> *
| 24>
| 25>                          ****END OF INPUT****
 Total Charge           Charge          ....    0
 Multiplicity           Mult            ....    1
 Number of Electrons    NEL             ....   50
 Basis Dimension        Dim             ....  118

MULLIKEN ATOMIC CHARGES
-----------------------
   0 O :   -0.065116
   1 C :    0.146735
   2 C :   -0.217019
   3 N :    0.047748
   4 N :   -0.234988
   5 C :    0.008539
   6 C :    0.015785
   7 H :    0.077953
   8 H :    0.072128
   9 H :    0.077550
  10 H :    0.070686
Sum of atomic charges:    0.0000000

LOEWDIN ATOMIC CHARGES
----------------------
   0 O :   -0.040345
   1 C :    0.027149
   2 C :   -0.080945
   3 N :   -0.015849
   4 N :   -0.094598
   5 C :    0.033940
   6 C :    0.035468
   7 H :    0.029387
   8 H :    0.038277
   9 H :    0.029463
  10 H :    0.038054

  Mayer bond orders larger than 0.1
B(  0-O ,  1-C ) :   2.2322 B(  1-C ,  2-C ) :   0.8587 B(  1-C ,  4-N ) :   1.0868
B(  2-C ,  3-N ) :   2.9915 B(  4-N ,  5-C ) :   0.9038 B(  4-N ,  6-C ) :   0.9046
B(  5-C ,  6-C ) :   1.0775 B(  5-C ,  7-H ) :   0.9374 B(  5-C ,  8-H ) :   0.9470
B(  6-C ,  9-H ) :   0.9373 B(  6-C , 10-H ) :   0.9469

FINAL SINGLE POINT ENERGY      -338.830878921558

DIPOLE MOMENT
-------------
                                X             Y             Z
Electronic contribution:     -2.49749       2.73093       4.18797
Nuclear contribution   :      3.16513      -3.36307      -5.15302
                        -----------------------------------------
Total Dipole Moment    :      0.66764      -0.63215      -0.96505
                        -----------------------------------------
Magnitude (a.u.)       :      1.33292
Magnitude (Debye)      :      3.38801

                             ****ORCA TERMINATED NORMALLY****
TOTAL RUN TIME: 0 days 0 hours 0 minutes 5 seconds 710 msec
