                         Program Version 3.0.3 - RELEASE   -
|  1> ! RI PBE def2-SVP def2-SVP/J NBO PAL2
|  2> % maxcore 2000
|  3> % output
|  4>     # printlevel mini
|  5>     print[ P_Basis ] 0
|  6>     print[ P_SCFInfo ] 1
|  7>     print[ P_SCFIterInfo ] 1
|  8>     print[ P_OrbEn ] 0
|  9>     print[ P_Cartesian ] 0
| 10> end
| 11> *xyz 0 1
| 12>  O        4.2988720000     2.7744170000    -1.2948020000
| 13>  C        4.9669180000     2.2187720000    -0.4632840000
| 14>  C        4.5193150000     2.0280930000     0.9313360000
| 15>  N        5.3099340000     1.4274970000     1.7206640000
| 16>  N        4.7948840000     1.2955390000     3.0229040000
| 17>  C        5.3069480000     0.0521850000     3.6283180000
| 18>  C        5.9039400000     1.3361970000     3.9942770000
| 19>  H        5.9713740000     1.8072480000    -0.6826070000
| 20>  H        3.5403190000     2.4028400000     1.2341950000
| 21>  H        5.8753130000    -0.5947810000     2.9708520000
| 22>  H        4.5937520000    -0.4351080000     4.2813900000
| 23>  H        6.8808590000     1.5679870000     3.5871450000
| 24>  H        5.6442820000     1.8246040000     4.9252100000
| 25> *
| 26>
| 27>                          ****END OF INPUT****
 Total Charge           Charge          ....    0
 Multiplicity           Mult            ....    1
 Number of Electrons    NEL             ....   52
 Basis Dimension        Dim             ....  128

MULLIKEN ATOMIC CHARGES
-----------------------
   0 O :   -0.154126
   1 C :    0.155694
   2 C :    0.005244
   3 N :   -0.065694
   4 N :   -0.235240
   5 C :    0.043489
   6 C :    0.047905
   7 H :   -0.010471
   8 H :    0.012931
   9 H :    0.044558
  10 H :    0.055864
  11 H :    0.045750
  12 H :    0.054097
Sum of atomic charges:   -0.0000000

LOEWDIN ATOMIC CHARGES
----------------------
   0 O :   -0.094330
   1 C :    0.069453
   2 C :   -0.028447
   3 N :   -0.009410
   4 N :   -0.074195
   5 C :    0.010437
   6 C :    0.012158
   7 H :   -0.007234
   8 H :    0.014500
   9 H :    0.023244
  10 H :    0.030287
  11 H :    0.023497
  12 H :    0.030039

  Mayer bond orders larger than 0.1
B(  0-O ,  1-C ) :   2.1186 B(  1-C ,  2-C ) :   0.9768 B(  1-C ,  7-H ) :   0.9239
B(  2-C ,  3-N ) :   1.8225 B(  2-C ,  8-H ) :   0.9418 B(  3-N ,  4-N ) :   0.9621
B(  4-N ,  5-C ) :   0.9108 B(  4-N ,  6-C ) :   0.9089 B(  5-C ,  6-C ) :   1.1058
B(  5-C ,  9-H ) :   0.9358 B(  5-C , 10-H ) :   0.9501 B(  6-C , 11-H ) :   0.9360
B(  6-C , 12-H ) :   0.9508

FINAL SINGLE POINT ENERGY      -340.003804829846

DIPOLE MOMENT
-------------
                                X             Y             Z
Electronic contribution:     -1.81957       2.30123      -5.05734
Nuclear contribution   :      2.27490      -2.81792       6.12929
                        -----------------------------------------
Total Dipole Moment    :      0.45533      -0.51669       1.07195
                        -----------------------------------------
Magnitude (a.u.)       :      1.27412
Magnitude (Debye)      :      3.23855

                             ****ORCA TERMINATED NORMALLY****
TOTAL RUN TIME: 0 days 0 hours 0 minutes 6 seconds 113 msec
