                         Program Version 3.0.3 - RELEASE   -
|  1> ! RI PBE def2-SVP def2-SVP/J NBO PAL2
|  2> % maxcore 2000
|  3> % output
|  4>     # printlevel mini
|  5>     print[ P_Basis ] 0
|  6>     print[ P_SCFInfo ] 1
|  7>     print[ P_SCFIterInfo ] 1
|  8>     print[ P_OrbEn ] 0
|  9>     print[ P_Cartesian ] 0
| 10> end
| 11> *xyz 0 1
| 12>  O        3.4744820000     1.0557290000    -1.0614350000
| 13>  C        2.8001230000     0.0456320000    -0.3761090000
| 14>  C        2.5527970000     0.3757820000     1.0555640000
| 15>  N        2.9549180000     1.4857030000     1.5032330000
| 16>  N        2.6623380000     1.6839990000     2.8738870000
| 17>  C        3.7088070000     2.4936070000     3.5045950000
| 18>  C        2.4245060000     3.1052520000     3.1418930000
| 19>  H        3.6266780000     1.7590320000    -0.4133190000
| 20>  H        3.3696180000    -0.8954820000    -0.4186310000
| 21>  H        1.8303620000    -0.1629220000    -0.8534700000
| 22>  H        2.0309240000    -0.3440200000     1.6900080000
| 23>  H        4.5658030000     2.7312040000     2.8850380000
| 24>  H        3.9241940000     2.2204400000     4.5304900000
| 25>  H        2.4107370000     3.7575380000     2.2763970000
| 26>  H        1.6675320000     3.2951250000     3.8931610000
| 27> *
| 28>
| 29>                          ****END OF INPUT****
 Total Charge           Charge          ....    0
 Multiplicity           Mult            ....    1
 Number of Electrons    NEL             ....   54
 Basis Dimension        Dim             ....  138

MULLIKEN ATOMIC CHARGES
-----------------------
   0 O :   -0.273006
   1 C :    0.234067
   2 C :   -0.055238
   3 N :   -0.129277
   4 N :   -0.224490
   5 C :    0.041373
   6 C :    0.038348
   7 H :    0.139535
   8 H :    0.020849
   9 H :    0.021604
  10 H :    0.013116
  11 H :    0.036771
  12 H :    0.047666
  13 H :    0.038729
  14 H :    0.049952
Sum of atomic charges:    0.0000000

LOEWDIN ATOMIC CHARGES
----------------------
   0 O :   -0.120831
   1 C :    0.044071
   2 C :   -0.001659
   3 N :   -0.059989
   4 N :   -0.069718
   5 C :    0.003169
   6 C :    0.001508
   7 H :    0.044802
   8 H :    0.027511
   9 H :    0.027692
  10 H :    0.010854
  11 H :    0.019578
  12 H :    0.026301
  13 H :    0.020141
  14 H :    0.026572

  Mayer bond orders larger than 0.1
B(  0-O ,  1-C ) :   1.1438 B(  0-O ,  7-H ) :   0.9498 B(  1-C ,  2-C ) :   1.0191
B(  1-C ,  8-H ) :   0.9045 B(  1-C ,  9-H ) :   0.9048 B(  2-C ,  3-N ) :   1.8976
B(  2-C , 10-H ) :   0.9371 B(  3-N ,  4-N ) :   0.9556 B(  3-N ,  7-H ) :   0.1028
B(  4-N ,  5-C ) :   0.9339 B(  4-N ,  6-C ) :   0.9313 B(  5-C ,  6-C ) :   1.0966
B(  5-C , 11-H ) :   0.9377 B(  5-C , 12-H ) :   0.9511 B(  6-C , 13-H ) :   0.9363
B(  6-C , 14-H ) :   0.9503

FINAL SINGLE POINT ENERGY      -341.204573605563

DIPOLE MOMENT
-------------
                                X             Y             Z
Electronic contribution:      0.01999      -0.61671      -1.09184
Nuclear contribution   :     -0.19379       0.64315       1.77423
                        -----------------------------------------
Total Dipole Moment    :     -0.17380       0.02644       0.68238
                        -----------------------------------------
Magnitude (a.u.)       :      0.70467
Magnitude (Debye)      :      1.79112

                             ****ORCA TERMINATED NORMALLY****
TOTAL RUN TIME: 0 days 0 hours 0 minutes 6 seconds 552 msec
