                         Program Version 3.0.3 - RELEASE   -
|  1> ! RI PBE def2-SVP def2-SVP/J NBO PAL2
|  2> % maxcore 2000
|  3> % output
|  4>     # printlevel mini
|  5>     print[ P_Basis ] 0
|  6>     print[ P_SCFInfo ] 1
|  7>     print[ P_SCFIterInfo ] 1
|  8>     print[ P_OrbEn ] 0
|  9>     print[ P_Cartesian ] 0
| 10> end
| 11> *xyz 0 1
| 12>  O        2.2242950000     0.3545000000    -1.3886130000
| 13>  C        3.0201790000     0.0856880000    -0.2649420000
| 14>  C        2.6562590000     0.9193910000     0.9439750000
| 15>  N        1.6256340000     1.6444000000     1.0525070000
| 16>  N        3.5475110000     0.7433320000     2.0011170000
| 17>  C        4.7854430000     1.5032460000     2.0359180000
| 18>  C        3.6837970000     1.7785300000     2.9912170000
| 19>  H        2.4648330000     1.2167880000    -1.7376370000
| 20>  H        4.0909860000     0.2049350000    -0.4767140000
| 21>  H        2.8665500000    -0.9663710000    -0.0109420000
| 22>  H        1.0662380000     1.5575950000     0.2042620000
| 23>  H        4.9458960000     2.2353830000     1.2490530000
| 24>  H        5.6678580000     0.9577640000     2.3519700000
| 25>  H        3.0906650000     2.6732410000     2.8374510000
| 26>  H        3.7643570000     1.4321870000     4.0152780000
| 27> *
| 28>
| 29>                          ****END OF INPUT****
 Total Charge           Charge          ....    0
 Multiplicity           Mult            ....    1
 Number of Electrons    NEL             ....   54
 Basis Dimension        Dim             ....  138

MULLIKEN ATOMIC CHARGES
-----------------------
   0 O :   -0.269475
   1 C :    0.257130
   2 C :   -0.229649
   3 N :   -0.065338
   4 N :   -0.231170
   5 C :    0.036346
   6 C :    0.055263
   7 H :    0.155788
   8 H :    0.009142
   9 H :    0.044142
  10 H :    0.073684
  11 H :    0.035313
  12 H :    0.041548
  13 H :    0.046356
  14 H :    0.040921
Sum of atomic charges:   -0.0000000

LOEWDIN ATOMIC CHARGES
----------------------
   0 O :   -0.102914
   1 C :    0.033799
   2 C :   -0.028899
   3 N :   -0.131443
   4 N :   -0.073365
   5 C :    0.021275
   6 C :    0.023382
   7 H :    0.071166
   8 H :    0.015455
   9 H :    0.041932
  10 H :    0.040235
  11 H :    0.018356
  12 H :    0.022115
  13 H :    0.023108
  14 H :    0.025799

  Mayer bond orders larger than 0.1
B(  0-O ,  1-C ) :   1.0682 B(  0-O ,  7-H ) :   0.9811 B(  1-C ,  2-C ) :   0.9373
B(  1-C ,  8-H ) :   0.9299 B(  1-C ,  9-H ) :   0.9178 B(  2-C ,  3-N ) :   2.0265
B(  2-C ,  4-N ) :   1.0573 B(  3-N , 10-H ) :   0.8981 B(  4-N ,  5-C ) :   0.9409
B(  4-N ,  6-C ) :   0.9535 B(  5-C ,  6-C ) :   1.0923 B(  5-C , 11-H ) :   0.9335
B(  5-C , 12-H ) :   0.9498 B(  6-C , 13-H ) :   0.9284 B(  6-C , 14-H ) :   0.9487

FINAL SINGLE POINT ENERGY      -341.240335274655

DIPOLE MOMENT
-------------
                                X             Y             Z
Electronic contribution:     -2.33155      -0.89837      -0.91010
Nuclear contribution   :      3.26278       1.23273       0.56663
                        -----------------------------------------
Total Dipole Moment    :      0.93124       0.33436      -0.34347
                        -----------------------------------------
Magnitude (a.u.)       :      1.04736
Magnitude (Debye)      :      2.66219

                             ****ORCA TERMINATED NORMALLY****
TOTAL RUN TIME: 0 days 0 hours 0 minutes 6 seconds 547 msec
