                         Program Version 3.0.3 - RELEASE   -
|  1> ! RI PBE def2-SVP def2-SVP/J NBO PAL2
|  2> % maxcore 2000
|  3> % output
|  4>     # printlevel mini
|  5>     print[ P_Basis ] 0
|  6>     print[ P_SCFInfo ] 1
|  7>     print[ P_SCFIterInfo ] 1
|  8>     print[ P_OrbEn ] 0
|  9>     print[ P_Cartesian ] 0
| 10> end
| 11> *xyz 0 1
| 12>  O        2.7566070000     1.3086670000    -0.2034110000
| 13>  C        1.9724730000     0.1545710000     0.0031590000
| 14>  C        2.6668510000    -0.9414020000     0.7914790000
| 15>  N        2.0684360000    -1.8549450000     1.4460300000
| 16>  N        4.0277340000    -0.8946250000     0.6912990000
| 17>  C        4.8816220000    -1.8070160000     1.2775200000
| 18>  C        6.2086610000    -1.7656510000     1.1896860000
| 19>  H        2.8067200000     1.7978360000     0.6224270000
| 20>  H        1.7419100000    -0.2348900000    -0.9924900000
| 21>  H        1.0222790000     0.3878870000     0.4954640000
| 22>  H        1.0630350000    -1.7152250000     1.4150020000
| 23>  H        4.4064260000    -0.1253780000     0.1613810000
| 24>  H        4.3578330000    -2.5792130000     1.8279070000
| 25>  H        6.7298120000    -0.9926500000     0.6350710000
| 26>  H        6.8061910000    -2.5219460000     1.6780460000
| 27> *
| 28>
| 29>                          ****END OF INPUT****
 Total Charge           Charge          ....    0
 Multiplicity           Mult            ....    1
 Number of Electrons    NEL             ....   54
 Basis Dimension        Dim             ....  138

MULLIKEN ATOMIC CHARGES
-----------------------
   0 O :   -0.279405
   1 C :    0.249062
   2 C :   -0.249770
   3 N :   -0.107032
   4 N :   -0.029981
   5 C :    0.035204
   6 C :   -0.071779
   7 H :    0.162826
   8 H :    0.045733
   9 H :    0.011371
  10 H :    0.076360
  11 H :    0.096711
  12 H :    0.024245
  13 H :    0.009335
  14 H :    0.027121
Sum of atomic charges:   -0.0000000

LOEWDIN ATOMIC CHARGES
----------------------
   0 O :   -0.107695
   1 C :    0.036738
   2 C :   -0.027088
   3 N :   -0.168398
   4 N :    0.043329
   5 C :    0.019133
   6 C :   -0.124019
   7 H :    0.077333
   8 H :    0.040306
   9 H :    0.017441
  10 H :    0.044566
  11 H :    0.068190
  12 H :    0.032768
  13 H :    0.017883
  14 H :    0.029514

  Mayer bond orders larger than 0.1
B(  0-O ,  1-C ) :   1.0390 B(  0-O ,  7-H ) :   0.9823 B(  1-C ,  2-C ) :   0.9569
B(  1-C ,  8-H ) :   0.9164 B(  1-C ,  9-H ) :   0.9306 B(  2-C ,  3-N ) :   1.9239
B(  2-C ,  4-N ) :   1.1959 B(  3-N , 10-H ) :   0.9216 B(  4-N ,  5-C ) :   1.1358
B(  4-N , 11-H ) :   0.8960 B(  5-C ,  6-C ) :   1.8875 B(  5-C , 12-H ) :   0.9520
B(  6-C , 13-H ) :   0.9487 B(  6-C , 14-H ) :   0.9428

FINAL SINGLE POINT ENERGY      -341.270957816320

DIPOLE MOMENT
-------------
                                X             Y             Z
Electronic contribution:     -1.45811       0.82042      -0.23096
Nuclear contribution   :      1.07392       0.10505       0.09317
                        -----------------------------------------
Total Dipole Moment    :     -0.38419       0.92548      -0.13779
                        -----------------------------------------
Magnitude (a.u.)       :      1.01148
Magnitude (Debye)      :      2.57098

                             ****ORCA TERMINATED NORMALLY****
TOTAL RUN TIME: 0 days 0 hours 0 minutes 7 seconds 311 msec
