                         Program Version 3.0.3 - RELEASE   -
|  1> ! RI PBE def2-SVP def2-SVP/J NBO PAL2
|  2> % maxcore 2000
|  3> % output
|  4>     # printlevel mini
|  5>     print[ P_Basis ] 0
|  6>     print[ P_SCFInfo ] 1
|  7>     print[ P_SCFIterInfo ] 1
|  8>     print[ P_OrbEn ] 0
|  9>     print[ P_Cartesian ] 0
| 10> end
| 11> *xyz 0 1
| 12>  O        1.8783840000     0.1678580000    -1.1816400000
| 13>  C        2.5466910000    -0.1911330000    -0.0018910000
| 14>  C        2.9856700000     1.0048980000     0.8189280000
| 15>  N        2.1815600000     1.8855340000     1.2840880000
| 16>  O        0.8714370000     1.5931200000     0.9502260000
| 17>  C        4.3652690000     1.1750430000     1.1146600000
| 18>  C        5.5463230000     1.2428070000     1.3268980000
| 19>  H        1.0962070000     0.6655880000    -0.9217710000
| 20>  H        3.4264670000    -0.7631680000    -0.2936880000
| 21>  H        1.9247860000    -0.8290700000     0.6424820000
| 22>  H        0.3784270000     2.3132410000     1.3535260000
| 23>  H        6.5897900000     1.3227920000     1.5219930000
| 24> *
| 25>
| 26>                          ****END OF INPUT****
 Total Charge           Charge          ....    0
 Multiplicity           Mult            ....    1
 Number of Electrons    NEL             ....   52
 Basis Dimension        Dim             ....  123

MULLIKEN ATOMIC CHARGES
-----------------------
   0 O :   -0.279054
   1 C :    0.312412
   2 C :   -0.228343
   3 N :   -0.024827
   4 O :   -0.182224
   5 C :    0.438950
   6 C :   -0.424220
   7 H :    0.154131
   8 H :    0.010839
   9 H :    0.022159
  10 H :    0.187433
  11 H :    0.012743
Sum of atomic charges:   -0.0000000

LOEWDIN ATOMIC CHARGES
----------------------
   0 O :   -0.107552
   1 C :    0.057561
   2 C :   -0.084978
   3 N :    0.001729
   4 O :   -0.038130
   5 C :   -0.017526
   6 C :   -0.042419
   7 H :    0.053199
   8 H :    0.033011
   9 H :    0.021501
  10 H :    0.084330
  11 H :    0.039274

  Mayer bond orders larger than 0.1
B(  0-O ,  1-C ) :   1.0797 B(  0-O ,  7-H ) :   0.9690 B(  1-C ,  2-C ) :   0.9766
B(  1-C ,  8-H ) :   0.9211 B(  1-C ,  9-H ) :   0.9102 B(  2-C ,  3-N ) :   1.8194
B(  2-C ,  5-C ) :   1.0383 B(  3-N ,  4-O ) :   0.9963 B(  3-N ,  6-C ) :   0.1052
B(  4-O , 10-H ) :   0.9669 B(  5-C ,  6-C ) :   2.2798 B(  6-C , 11-H ) :   1.0881

FINAL SINGLE POINT ENERGY      -359.807652892741

DIPOLE MOMENT
-------------
                                X             Y             Z
Electronic contribution:     -0.00021       2.11095       0.95416
Nuclear contribution   :     -0.40883      -2.00656      -0.49481
                        -----------------------------------------
Total Dipole Moment    :     -0.40904       0.10439       0.45934
                        -----------------------------------------
Magnitude (a.u.)       :      0.62386
Magnitude (Debye)      :      1.58573

                             ****ORCA TERMINATED NORMALLY****
TOTAL RUN TIME: 0 days 0 hours 0 minutes 5 seconds 649 msec
