                         Program Version 3.0.3 - RELEASE   -
|  1> ! RI PBE def2-SVP def2-SVP/J NBO PAL2
|  2> % maxcore 2000
|  3> % output
|  4>     # printlevel mini
|  5>     print[ P_Basis ] 0
|  6>     print[ P_SCFInfo ] 1
|  7>     print[ P_SCFIterInfo ] 1
|  8>     print[ P_OrbEn ] 0
|  9>     print[ P_Cartesian ] 0
| 10> end
| 11> *xyz 0 1
| 12>  O        2.0854580000     2.1629300000     0.1874590000
| 13>  C        1.9192800000     1.1397830000    -0.4114210000
| 14>  C        3.0610380000     0.3134060000    -0.9968530000
| 15>  O        2.7827740000    -0.6800500000    -1.6289120000
| 16>  C        4.4399780000     0.7751830000    -0.7578260000
| 17>  C        5.3795890000    -0.2554300000    -0.2166790000
| 18>  N        5.4906200000     0.1916870000    -1.5802550000
| 19>  H        0.9207060000     0.6978220000    -0.6001660000
| 20>  H        4.5622910000     1.8097790000    -0.4628690000
| 21>  H        4.9666480000    -1.2399480000    -0.0206960000
| 22>  H        6.1601840000     0.0788280000     0.4572680000
| 23>  H        5.0574240000    -0.4949990000    -2.1954500000
| 24> *
| 25>
| 26>                          ****END OF INPUT****
 Total Charge           Charge          ....    0
 Multiplicity           Mult            ....    1
 Number of Electrons    NEL             ....   52
 Basis Dimension        Dim             ....  123

MULLIKEN ATOMIC CHARGES
-----------------------
   0 O :   -0.111590
   1 C :    0.154876
   2 C :    0.030743
   3 O :   -0.155370
   4 C :   -0.115782
   5 C :    0.074368
   6 N :   -0.142044
   7 H :    0.000056
   8 H :    0.039560
   9 H :    0.051768
  10 H :    0.058526
  11 H :    0.114889
Sum of atomic charges:    0.0000000

LOEWDIN ATOMIC CHARGES
----------------------
   0 O :   -0.065165
   1 C :    0.078865
   2 C :   -0.000969
   3 O :   -0.103235
   4 C :   -0.033911
   5 C :    0.042606
   6 N :   -0.060573
   7 H :   -0.000471
   8 H :    0.033578
   9 H :    0.022877
  10 H :    0.030896
  11 H :    0.055501

  Mayer bond orders larger than 0.1
B(  0-O ,  1-C ) :   2.1928 B(  1-C ,  2-C ) :   0.8723 B(  1-C ,  7-H ) :   0.9101
B(  2-C ,  3-O ) :   2.0861 B(  2-C ,  4-C ) :   0.9627 B(  4-C ,  5-C ) :   0.9796
B(  4-C ,  6-N ) :   1.0165 B(  4-C ,  8-H ) :   0.9315 B(  5-C ,  6-N ) :   1.0019
B(  5-C ,  9-H ) :   0.9395 B(  5-C , 10-H ) :   0.9434 B(  6-N , 11-H ) :   0.9296

FINAL SINGLE POINT ENERGY      -359.890386712884

DIPOLE MOMENT
-------------
                                X             Y             Z
Electronic contribution:     -3.45121       1.27602      -0.67180
Nuclear contribution   :      3.52732      -1.60890       0.97879
                        -----------------------------------------
Total Dipole Moment    :      0.07611      -0.33288       0.30699
                        -----------------------------------------
Magnitude (a.u.)       :      0.45917
Magnitude (Debye)      :      1.16713

                             ****ORCA TERMINATED NORMALLY****
TOTAL RUN TIME: 0 days 0 hours 0 minutes 5 seconds 582 msec
