                         Program Version 3.0.3 - RELEASE   -
|  1> ! RI PBE def2-SVP def2-SVP/J NBO PAL2
|  2> % maxcore 2000
|  3> % output
|  4>     # printlevel mini
|  5>     print[ P_Basis ] 0
|  6>     print[ P_SCFInfo ] 1
|  7>     print[ P_SCFIterInfo ] 1
|  8>     print[ P_OrbEn ] 0
|  9>     print[ P_Cartesian ] 0
| 10> end
| 11> *xyz 0 1
| 12>  O        1.0686240000    -0.3836680000     0.0637020000
| 13>  C        2.4252820000    -0.0779750000     0.0092330000
| 14>  C        3.0928290000    -0.4297230000     1.3111780000
| 15>  O        2.4749470000    -0.9100070000     2.2246960000
| 16>  C        3.1286860000    -0.8110520000    -1.1232890000
| 17>  C        2.7854270000    -2.2147710000    -1.4108300000
| 18>  N        2.3760610000    -1.1421620000    -2.3156330000
| 19>  H        0.9126060000    -0.7490720000     0.9489410000
| 20>  H        2.5622350000     1.0050340000    -0.1499340000
| 21>  H        4.1807110000    -0.2402190000     1.3819250000
| 22>  H        4.1417450000    -0.4631940000    -1.3098630000
| 23>  H        2.0202300000    -2.6750400000    -0.7942580000
| 24>  H        3.5413670000    -2.8872070000    -1.8002160000
| 25>  H        1.3950400000    -0.9340540000    -2.1480530000
| 26> *
| 27>
| 28>                          ****END OF INPUT****
 Total Charge           Charge          ....    0
 Multiplicity           Mult            ....    1
 Number of Electrons    NEL             ....   54
 Basis Dimension        Dim             ....  133

MULLIKEN ATOMIC CHARGES
-----------------------
   0 O :   -0.244955
   1 C :    0.139477
   2 C :    0.118329
   3 O :   -0.175062
   4 C :   -0.115403
   5 C :    0.043008
   6 N :   -0.174276
   7 H :    0.154845
   8 H :    0.034876
   9 H :    0.008590
  10 H :    0.024087
  11 H :    0.030865
  12 H :    0.039871
  13 H :    0.115749
Sum of atomic charges:   -0.0000000

LOEWDIN ATOMIC CHARGES
----------------------
   0 O :   -0.094268
   1 C :   -0.002686
   2 C :    0.090934
   3 O :   -0.100881
   4 C :   -0.022726
   5 C :    0.002107
   6 N :   -0.084781
   7 H :    0.060120
   8 H :    0.035292
   9 H :    0.002685
  10 H :    0.023014
  11 H :    0.014625
  12 H :    0.022712
  13 H :    0.053855

  Mayer bond orders larger than 0.1
B(  0-O ,  1-C ) :   1.1612 B(  0-O ,  7-H ) :   0.9328 B(  1-C ,  2-C ) :   0.9431
B(  1-C ,  4-C ) :   0.9477 B(  1-C ,  8-H ) :   0.8765 B(  2-C ,  3-O ) :   2.1122
B(  2-C ,  9-H ) :   0.9281 B(  3-O ,  7-H ) :   0.1074 B(  4-C ,  5-C ) :   1.0511
B(  4-C ,  6-N ) :   1.0292 B(  4-C , 10-H ) :   0.9236 B(  5-C ,  6-N ) :   0.9996
B(  5-C , 11-H ) :   0.9375 B(  5-C , 12-H ) :   0.9400 B(  6-N , 13-H ) :   0.9362

FINAL SINGLE POINT ENERGY      -361.088507130715

DIPOLE MOMENT
-------------
                                X             Y             Z
Electronic contribution:     -1.17502       1.09434       2.94920
Nuclear contribution   :      1.58329      -0.91505      -2.67699
                        -----------------------------------------
Total Dipole Moment    :      0.40827       0.17929       0.27221
                        -----------------------------------------
Magnitude (a.u.)       :      0.52242
Magnitude (Debye)      :      1.32790

                             ****ORCA TERMINATED NORMALLY****
TOTAL RUN TIME: 0 days 0 hours 0 minutes 6 seconds 728 msec
