                         Program Version 3.0.3 - RELEASE   -
|  1> ! RI PBE def2-SVP def2-SVP/J NBO PAL2
|  2> % maxcore 2000
|  3> % output
|  4>     # printlevel mini
|  5>     print[ P_Basis ] 0
|  6>     print[ P_SCFInfo ] 1
|  7>     print[ P_SCFIterInfo ] 1
|  8>     print[ P_OrbEn ] 0
|  9>     print[ P_Cartesian ] 0
| 10> end
| 11> *xyz 0 1
| 12>  O        0.7525150000    -0.3283020000    -0.4747190000
| 13>  C        1.9296630000    -0.1376480000    -1.1841180000
| 14>  C        2.9794920000     0.5454550000    -0.3495960000
| 15>  O        2.7501310000     0.8064110000     0.8130290000
| 16>  C        4.2725340000     0.8738690000    -0.9894550000
| 17>  C        4.7774250000     2.2605420000    -0.7713820000
| 18>  N        5.4096290000     1.1411970000    -0.1197860000
| 19>  H        0.9324400000    -0.0013600000     0.4202920000
| 20>  H        2.3504000000    -1.0949900000    -1.5304620000
| 21>  H        1.7574890000     0.4689230000    -2.0859720000
| 22>  H        4.4980320000     0.3717060000    -1.9245980000
| 23>  H        4.1475870000     2.9192100000    -0.1822540000
| 24>  H        5.3494960000     2.7278070000    -1.5651220000
| 25>  H        5.0794660000     1.0833790000     0.8419440000
| 26> *
| 27>
| 28>                          ****END OF INPUT****
 Total Charge           Charge          ....    0
 Multiplicity           Mult            ....    1
 Number of Electrons    NEL             ....   54
 Basis Dimension        Dim             ....  133

MULLIKEN ATOMIC CHARGES
-----------------------
   0 O :   -0.260436
   1 C :    0.199704
   2 C :   -0.018856
   3 O :   -0.200769
   4 C :   -0.099914
   5 C :    0.075677
   6 N :   -0.150042
   7 H :    0.152280
   8 H :    0.029455
   9 H :    0.029663
  10 H :    0.024389
  11 H :    0.051102
  12 H :    0.050729
  13 H :    0.117018
Sum of atomic charges:    0.0000000

LOEWDIN ATOMIC CHARGES
----------------------
   0 O :   -0.112419
   1 C :    0.027068
   2 C :    0.033284
   3 O :   -0.135086
   4 C :   -0.039629
   5 C :    0.035122
   6 N :   -0.067278
   7 H :    0.057150
   8 H :    0.032861
   9 H :    0.032712
  10 H :    0.029280
  11 H :    0.022937
  12 H :    0.027889
  13 H :    0.056110

  Mayer bond orders larger than 0.1
B(  0-O ,  1-C ) :   1.1551 B(  0-O ,  7-H ) :   0.9471 B(  1-C ,  2-C ) :   0.9741
B(  1-C ,  8-H ) :   0.8972 B(  1-C ,  9-H ) :   0.9065 B(  2-C ,  3-O ) :   2.0695
B(  2-C ,  4-C ) :   0.9568 B(  4-C ,  5-C ) :   0.9896 B(  4-C ,  6-N ) :   1.0219
B(  4-C , 10-H ) :   0.9392 B(  5-C ,  6-N ) :   1.0066 B(  5-C , 11-H ) :   0.9407
B(  5-C , 12-H ) :   0.9407 B(  6-N , 13-H ) :   0.9333

FINAL SINGLE POINT ENERGY      -361.098692272982

DIPOLE MOMENT
-------------
                                X             Y             Z
Electronic contribution:     -1.23627      -0.96000       2.39896
Nuclear contribution   :      1.56213       1.33992      -2.91245
                        -----------------------------------------
Total Dipole Moment    :      0.32586       0.37992      -0.51348
                        -----------------------------------------
Magnitude (a.u.)       :      0.71707
Magnitude (Debye)      :      1.82265

                             ****ORCA TERMINATED NORMALLY****
TOTAL RUN TIME: 0 days 0 hours 0 minutes 6 seconds 162 msec
