                         Program Version 3.0.3 - RELEASE   -
|  1> ! RI PBE def2-SVP def2-SVP/J NBO PAL2
|  2> % maxcore 2000
|  3> % output
|  4>     # printlevel mini
|  5>     print[ P_Basis ] 0
|  6>     print[ P_SCFInfo ] 1
|  7>     print[ P_SCFIterInfo ] 1
|  8>     print[ P_OrbEn ] 0
|  9>     print[ P_Cartesian ] 0
| 10> end
| 11> *xyz 0 1
| 12>  O        2.9032690000    -0.8088540000     0.7286640000
| 13>  C        2.4474140000     0.0776440000    -0.2790020000
| 14>  C        3.0163140000     1.4496800000     0.0449710000
| 15>  O        2.7349250000     1.7704430000     1.3882270000
| 16>  C        4.4935100000     1.5592860000    -0.2759390000
| 17>  C        5.3270290000     2.5545460000     0.4177050000
| 18>  N        5.5111040000     1.1252300000     0.6652520000
| 19>  H        2.4263470000    -1.6380240000     0.6624160000
| 20>  H        1.3518620000     0.1342770000    -0.2759600000
| 21>  H        2.7813900000    -0.2415910000    -1.2737640000
| 22>  H        2.4899620000     2.1799920000    -0.5820720000
| 23>  H        2.7172240000     0.9314590000     1.8649740000
| 24>  H        4.7249540000     1.3256430000    -1.3136230000
| 25>  H        4.8426540000     3.1450300000     1.1879610000
| 26>  H        6.1429230000     3.0392440000    -0.1072950000
| 27>  H        5.0701180000     0.8785040000     1.5456050000
| 28> *
| 29>
| 30>                          ****END OF INPUT****
 Total Charge           Charge          ....    0
 Multiplicity           Mult            ....    1
 Number of Electrons    NEL             ....   56
 Basis Dimension        Dim             ....  143

MULLIKEN ATOMIC CHARGES
-----------------------
   0 O :   -0.286572
   1 C :    0.146736
   2 C :    0.131797
   3 O :   -0.267682
   4 C :   -0.106355
   5 C :    0.053293
   6 N :   -0.183623
   7 H :    0.168951
   8 H :    0.018297
   9 H :    0.002947
  10 H :    0.012467
  11 H :    0.150376
  12 H :    0.009331
  13 H :    0.031453
  14 H :    0.029431
  15 H :    0.089154
Sum of atomic charges:   -0.0000000

LOEWDIN ATOMIC CHARGES
----------------------
   0 O :   -0.117350
   1 C :    0.045824
   2 C :    0.026456
   3 O :   -0.100055
   4 C :   -0.030088
   5 C :   -0.000855
   6 N :   -0.098582
   7 H :    0.079078
   8 H :    0.010013
   9 H :    0.011539
  10 H :    0.027981
  11 H :    0.052984
  12 H :    0.018456
  13 H :    0.015680
  14 H :    0.017535
  15 H :    0.041384

  Mayer bond orders larger than 0.1
B(  0-O ,  1-C ) :   1.0630 B(  0-O ,  7-H ) :   0.9729 B(  1-C ,  2-C ) :   1.0634
B(  1-C ,  8-H ) :   0.9323 B(  1-C ,  9-H ) :   0.9258 B(  2-C ,  3-O ) :   1.0700
B(  2-C ,  4-C ) :   0.9739 B(  2-C , 10-H ) :   0.9012 B(  3-O , 11-H ) :   0.9600
B(  4-C ,  5-C ) :   1.0564 B(  4-C ,  6-N ) :   1.0254 B(  4-C , 12-H ) :   0.9219
B(  5-C ,  6-N ) :   1.0017 B(  5-C , 13-H ) :   0.9333 B(  5-C , 14-H ) :   0.9398
B(  6-N , 15-H ) :   0.9384

FINAL SINGLE POINT ENERGY      -362.281038631510

DIPOLE MOMENT
-------------
                                X             Y             Z
Electronic contribution:     -0.10360      -0.87938       1.65614
Nuclear contribution   :     -0.90621       0.23171      -1.96366
                        -----------------------------------------
Total Dipole Moment    :     -1.00981      -0.64768      -0.30752
                        -----------------------------------------
Magnitude (a.u.)       :      1.23846
Magnitude (Debye)      :      3.14791

                             ****ORCA TERMINATED NORMALLY****
TOTAL RUN TIME: 0 days 0 hours 0 minutes 6 seconds 199 msec
