                         Program Version 3.0.3 - RELEASE   -
|  1> ! RI PBE def2-SVP def2-SVP/J NBO PAL2
|  2> % maxcore 2000
|  3> % output
|  4>     # printlevel mini
|  5>     print[ P_Basis ] 0
|  6>     print[ P_SCFInfo ] 1
|  7>     print[ P_SCFIterInfo ] 1
|  8>     print[ P_OrbEn ] 0
|  9>     print[ P_Cartesian ] 0
| 10> end
| 11> *xyz 0 1
| 12>  O        3.0666450000     1.5775890000     1.0632740000
| 13>  C        3.5234310000     1.4074750000     2.1558790000
| 14>  C        4.7318160000     0.5240060000     2.4624570000
| 15>  O        4.9918740000     0.2685640000     3.6154430000
| 16>  N        5.4718820000     0.1483550000     1.3835440000
| 17>  C        5.0525850000    -0.6215440000     0.2448100000
| 18>  C        6.0894130000    -1.1301430000     1.1921490000
| 19>  H        3.0865210000     1.8473820000     3.0736740000
| 20>  H        5.3498070000    -0.2324350000    -0.7221770000
| 21>  H        4.0671320000    -1.0726610000     0.2805130000
| 22>  H        7.1330330000    -1.1105120000     0.8992670000
| 23>  H        5.8123620000    -1.9149670000     1.8885560000
| 24> *
| 25>
| 26>                          ****END OF INPUT****
 Total Charge           Charge          ....    0
 Multiplicity           Mult            ....    1
 Number of Electrons    NEL             ....   52
 Basis Dimension        Dim             ....  123

MULLIKEN ATOMIC CHARGES
-----------------------
   0 O :   -0.120872
   1 C :    0.121806
   2 C :    0.034823
   3 O :   -0.161016
   4 N :   -0.195198
   5 C :    0.063703
   6 C :    0.034225
   7 H :    0.001710
   8 H :    0.050545
   9 H :    0.057204
  10 H :    0.057117
  11 H :    0.055954
Sum of atomic charges:    0.0000000

LOEWDIN ATOMIC CHARGES
----------------------
   0 O :   -0.075612
   1 C :    0.073819
   2 C :   -0.026136
   3 O :   -0.132846
   4 N :   -0.034550
   5 C :    0.043472
   6 C :    0.033015
   7 H :   -0.000218
   8 H :    0.030862
   9 H :    0.027943
  10 H :    0.032054
  11 H :    0.028196

  Mayer bond orders larger than 0.1
B(  0-O ,  1-C ) :   2.1934 B(  1-C ,  2-C ) :   0.8588 B(  1-C ,  7-H ) :   0.9112
B(  2-C ,  3-O ) :   2.0873 B(  2-C ,  4-N ) :   1.1367 B(  4-N ,  5-C ) :   0.9274
B(  4-N ,  6-C ) :   0.9495 B(  5-C ,  6-C ) :   1.0636 B(  5-C ,  8-H ) :   0.9482
B(  5-C ,  9-H ) :   0.9492 B(  6-C , 10-H ) :   0.9469 B(  6-C , 11-H ) :   0.9463

FINAL SINGLE POINT ENERGY      -359.898821641761

DIPOLE MOMENT
-------------
                                X             Y             Z
Electronic contribution:     -1.65830       3.17073       2.41254
Nuclear contribution   :      1.88493      -3.79300      -3.06221
                        -----------------------------------------
Total Dipole Moment    :      0.22663      -0.62227      -0.64967
                        -----------------------------------------
Magnitude (a.u.)       :      0.92771
Magnitude (Debye)      :      2.35805

                             ****ORCA TERMINATED NORMALLY****
TOTAL RUN TIME: 0 days 0 hours 0 minutes 5 seconds 438 msec
