                         Program Version 3.0.3 - RELEASE   -
|  1> ! RI PBE def2-SVP def2-SVP/J NBO PAL2
|  2> % maxcore 2000
|  3> % output
|  4>     # printlevel mini
|  5>     print[ P_Basis ] 0
|  6>     print[ P_SCFInfo ] 1
|  7>     print[ P_SCFIterInfo ] 1
|  8>     print[ P_OrbEn ] 0
|  9>     print[ P_Cartesian ] 0
| 10> end
| 11> *xyz 0 1
| 12>  O        1.3684290000    -0.0486490000    -0.5483580000
| 13>  C        2.5404120000    -0.1517580000     0.1923370000
| 14>  C        2.8536380000    -1.6008340000     0.4946490000
| 15>  O        2.1399920000    -2.4847870000     0.0745500000
| 16>  N        4.0207750000    -1.8320310000     1.1804740000
| 17>  C        4.2982440000    -1.4167960000     2.5333940000
| 18>  C        4.1722350000    -2.8573780000     2.1705820000
| 19>  H        1.0888990000    -0.9631020000    -0.7122470000
| 20>  H        2.4521100000     0.3985220000     1.1395580000
| 21>  H        3.3961460000     0.2773300000    -0.3465180000
| 22>  H        3.4857040000    -0.9740120000     3.1016970000
| 23>  H        5.2770310000    -0.9832900000     2.7067320000
| 24>  H        3.2721770000    -3.3819160000     2.4738290000
| 25>  H        5.0644000000    -3.4672000000     2.0848310000
| 26> *
| 27>
| 28>                          ****END OF INPUT****
 Total Charge           Charge          ....    0
 Multiplicity           Mult            ....    1
 Number of Electrons    NEL             ....   54
 Basis Dimension        Dim             ....  133

MULLIKEN ATOMIC CHARGES
-----------------------
   0 O :   -0.265316
   1 C :    0.185697
   2 C :   -0.004567
   3 O :   -0.199372
   4 N :   -0.206314
   5 C :    0.032895
   6 C :    0.045392
   7 H :    0.150568
   8 H :    0.017669
   9 H :    0.028303
  10 H :    0.057342
  11 H :    0.048401
  12 H :    0.054272
  13 H :    0.055030
Sum of atomic charges:    0.0000000

LOEWDIN ATOMIC CHARGES
----------------------
   0 O :   -0.117828
   1 C :    0.024017
   2 C :    0.016155
   3 O :   -0.149877
   4 N :   -0.054357
   5 C :    0.031234
   6 C :    0.033231
   7 H :    0.055366
   8 H :    0.022752
   9 H :    0.028963
  10 H :    0.024705
  11 H :    0.027683
  12 H :    0.027421
  13 H :    0.030535

  Mayer bond orders larger than 0.1
B(  0-O ,  1-C ) :   1.1592 B(  0-O ,  7-H ) :   0.9451 B(  1-C ,  2-C ) :   0.9642
B(  1-C ,  8-H ) :   0.9116 B(  1-C ,  9-H ) :   0.9052 B(  2-C ,  3-O ) :   2.0525
B(  2-C ,  4-N ) :   1.1122 B(  4-N ,  5-C ) :   0.9396 B(  4-N ,  6-C ) :   0.9521
B(  5-C ,  6-C ) :   1.0703 B(  5-C , 10-H ) :   0.9432 B(  5-C , 11-H ) :   0.9479
B(  6-C , 12-H ) :   0.9438 B(  6-C , 13-H ) :   0.9488

FINAL SINGLE POINT ENERGY      -361.105394623162

DIPOLE MOMENT
-------------
                                X             Y             Z
Electronic contribution:     -1.93098      -1.12509      -3.13808
Nuclear contribution   :      2.82464       1.06914       4.30065
                        -----------------------------------------
Total Dipole Moment    :      0.89366      -0.05595       1.16258
                        -----------------------------------------
Magnitude (a.u.)       :      1.46743
Magnitude (Debye)      :      3.72991

                             ****ORCA TERMINATED NORMALLY****
TOTAL RUN TIME: 0 days 0 hours 0 minutes 5 seconds 982 msec
