                         Program Version 3.0.3 - RELEASE   -
|  1> ! RI PBE def2-SVP def2-SVP/J NBO PAL2
|  2> % maxcore 2000
|  3> % output
|  4>     # printlevel mini
|  5>     print[ P_Basis ] 0
|  6>     print[ P_SCFInfo ] 1
|  7>     print[ P_SCFIterInfo ] 1
|  8>     print[ P_OrbEn ] 0
|  9>     print[ P_Cartesian ] 0
| 10> end
| 11> *xyz 0 1
| 12>  O        2.2630910000     1.2740110000    -0.2646780000
| 13>  C        1.7755200000    -0.0311490000    -0.0378710000
| 14>  C        2.8105320000    -1.0104690000     0.4929580000
| 15>  O        2.4873740000    -2.1092740000     0.8882410000
| 16>  N        4.0893360000    -0.5484160000     0.4511990000
| 17>  C        5.1824910000    -1.2946710000     0.8564870000
| 18>  C        6.4422570000    -0.8758750000     0.8034330000
| 19>  H        2.1369900000     1.7946640000     0.5317330000
| 20>  H        1.4254880000    -0.4242410000    -0.9963640000
| 21>  H        0.9245010000    -0.0510410000     0.6484850000
| 22>  H        4.2164790000     0.3779420000     0.0705980000
| 23>  H        4.9062210000    -2.2740750000     1.2285540000
| 24>  H        6.7120190000     0.1047860000     0.4269260000
| 25>  H        7.2411020000    -1.5214020000     1.1395020000
| 26> *
| 27>
| 28>                          ****END OF INPUT****
 Total Charge           Charge          ....    0
 Multiplicity           Mult            ....    1
 Number of Electrons    NEL             ....   54
 Basis Dimension        Dim             ....  133

MULLIKEN ATOMIC CHARGES
-----------------------
   0 O :   -0.285340
   1 C :    0.187790
   2 C :   -0.042606
   3 O :   -0.209684
   4 N :   -0.055088
   5 C :    0.042088
   6 C :   -0.067921
   7 H :    0.167167
   8 H :    0.048115
   9 H :    0.037884
  10 H :    0.105878
  11 H :    0.023987
  12 H :    0.013572
  13 H :    0.034159
Sum of atomic charges:   -0.0000000

LOEWDIN ATOMIC CHARGES
----------------------
   0 O :   -0.111739
   1 C :    0.030523
   2 C :    0.004240
   3 O :   -0.179086
   4 N :    0.039982
   5 C :    0.020138
   6 C :   -0.109770
   7 H :    0.078010
   8 H :    0.042529
   9 H :    0.030019
  10 H :    0.069909
  11 H :    0.032493
  12 H :    0.020570
  13 H :    0.032182

  Mayer bond orders larger than 0.1
B(  0-O ,  1-C ) :   1.0483 B(  0-O ,  7-H ) :   0.9816 B(  1-C ,  2-C ) :   0.9373
B(  1-C ,  8-H ) :   0.9172 B(  1-C ,  9-H ) :   0.9352 B(  2-C ,  3-O ) :   2.0564
B(  2-C ,  4-N ) :   1.1911 B(  4-N ,  5-C ) :   1.1176 B(  4-N , 10-H ) :   0.8910
B(  5-C ,  6-C ) :   1.8981 B(  5-C , 11-H ) :   0.9528 B(  6-C , 12-H ) :   0.9490
B(  6-C , 13-H ) :   0.9445

FINAL SINGLE POINT ENERGY      -361.137408316670

DIPOLE MOMENT
-------------
                                X             Y             Z
Electronic contribution:     -2.69348      -1.00248       0.12255
Nuclear contribution   :      2.71898       2.13941      -0.05117
                        -----------------------------------------
Total Dipole Moment    :      0.02549       1.13692       0.07138
                        -----------------------------------------
Magnitude (a.u.)       :      1.13945
Magnitude (Debye)      :      2.89624

                             ****ORCA TERMINATED NORMALLY****
TOTAL RUN TIME: 0 days 0 hours 0 minutes 6 seconds 280 msec
