                         Program Version 3.0.3 - RELEASE   -
|  1> ! RI PBE def2-SVP def2-SVP/J NBO PAL2
|  2> % maxcore 2000
|  3> % output
|  4>     # printlevel mini
|  5>     print[ P_Basis ] 0
|  6>     print[ P_SCFInfo ] 1
|  7>     print[ P_SCFIterInfo ] 1
|  8>     print[ P_OrbEn ] 0
|  9>     print[ P_Cartesian ] 0
| 10> end
| 11> *xyz 0 1
| 12>  O        1.9850120000    -0.9549100000    -0.5928790000
| 13>  C        2.0892980000     0.1698250000    -0.1857480000
| 14>  N        3.1927000000     0.9759570000    -0.3854880000
| 15>  C        3.8955810000     1.0474150000    -1.6272610000
| 16>  C        3.1307350000     2.2323130000    -1.1075960000
| 17>  C        3.7899440000     3.3796280000    -0.5520220000
| 18>  C        4.3333650000     4.3536150000    -0.1101830000
| 19>  H        1.3288500000     0.6570380000     0.4503010000
| 20>  H        3.4733650000     0.5073330000    -2.4688050000
| 21>  H        4.9768700000     1.0639780000    -1.5599470000
| 22>  H        2.1965970000     2.4455780000    -1.6224230000
| 23>  H        4.8189730000     5.2134300000     0.2876700000
| 24> *
| 25>
| 26>                          ****END OF INPUT****
 Total Charge           Charge          ....    0
 Multiplicity           Mult            ....    1
 Number of Electrons    NEL             ....   50
 Basis Dimension        Dim             ....  123

MULLIKEN ATOMIC CHARGES
-----------------------
   0 O :   -0.184697
   1 C :    0.142565
   2 N :   -0.187866
   3 C :    0.120027
   4 C :   -0.092154
   5 C :    0.460535
   6 C :   -0.439806
   7 H :   -0.001305
   8 H :    0.050399
   9 H :    0.055000
  10 H :    0.064439
  11 H :    0.012864
Sum of atomic charges:   -0.0000000

LOEWDIN ATOMIC CHARGES
----------------------
   0 O :   -0.134891
   1 C :    0.061337
   2 N :   -0.050212
   3 C :    0.051112
   4 C :    0.013107
   5 C :   -0.026946
   6 C :   -0.049529
   7 H :   -0.008420
   8 H :    0.027843
   9 H :    0.035463
  10 H :    0.041305
  11 H :    0.039831

  Mayer bond orders larger than 0.1
B(  0-O ,  1-C ) :   2.0987 B(  1-C ,  2-N ) :   1.1003 B(  1-C ,  7-H ) :   0.9307
B(  2-N ,  3-C ) :   0.9575 B(  2-N ,  4-C ) :   0.9017 B(  3-C ,  4-C ) :   1.0119
B(  3-C ,  8-H ) :   0.9372 B(  3-C ,  9-H ) :   0.9380 B(  4-C ,  5-C ) :   0.9786
B(  4-C , 10-H ) :   0.9187 B(  5-C ,  6-C ) :   2.3185 B(  6-C , 11-H ) :   1.0887

FINAL SINGLE POINT ENERGY      -322.772448379313

DIPOLE MOMENT
-------------
                                X             Y             Z
Electronic contribution:     -0.71274      -1.17638       1.19622
Nuclear contribution   :      0.91869       2.19937      -1.50581
                        -----------------------------------------
Total Dipole Moment    :      0.20595       1.02299      -0.30959
                        -----------------------------------------
Magnitude (a.u.)       :      1.08847
Magnitude (Debye)      :      2.76668

                             ****ORCA TERMINATED NORMALLY****
TOTAL RUN TIME: 0 days 0 hours 0 minutes 5 seconds 905 msec
