                         Program Version 3.0.3 - RELEASE   -
|  1> ! RI PBE def2-SVP def2-SVP/J NBO PAL2
|  2> % maxcore 2000
|  3> % output
|  4>     # printlevel mini
|  5>     print[ P_Basis ] 0
|  6>     print[ P_SCFInfo ] 1
|  7>     print[ P_SCFIterInfo ] 1
|  8>     print[ P_OrbEn ] 0
|  9>     print[ P_Cartesian ] 0
| 10> end
| 11> *xyz 0 1
| 12>  O        1.7046630000    -0.9896920000     0.0730510000
| 13>  C        2.2638010000     0.0261900000    -0.2271750000
| 14>  N        3.4819660000     0.0758120000    -0.8905180000
| 15>  C        3.8182810000    -0.7884980000    -1.9757600000
| 16>  C        3.6341580000     0.6865640000    -2.1898000000
| 17>  C        4.7635660000     1.5571540000    -2.3947630000
| 18>  N        5.6595210000     2.2512610000    -2.5855310000
| 19>  H        1.8994530000     1.0311120000     0.0480340000
| 20>  H        3.0389940000    -1.4416710000    -2.3552900000
| 21>  H        4.8246490000    -1.1902240000    -1.9706570000
| 22>  H        2.7340380000     0.9939910000    -2.7153910000
| 23> *
| 24>
| 25>                          ****END OF INPUT****
 Total Charge           Charge          ....    0
 Multiplicity           Mult            ....    1
 Number of Electrons    NEL             ....   50
 Basis Dimension        Dim             ....  118

MULLIKEN ATOMIC CHARGES
-----------------------
   0 O :   -0.173355
   1 C :    0.156589
   2 N :   -0.188131
   3 C :    0.129804
   4 C :   -0.158202
   5 C :   -0.058374
   6 N :    0.075074
   7 H :    0.007041
   8 H :    0.064712
   9 H :    0.063198
  10 H :    0.081645
Sum of atomic charges:   -0.0000000

LOEWDIN ATOMIC CHARGES
----------------------
   0 O :   -0.121279
   1 C :    0.069741
   2 N :   -0.046905
   3 C :    0.061726
   4 C :   -0.004208
   5 C :   -0.042759
   6 N :   -0.035341
   7 H :   -0.004036
   8 H :    0.033747
   9 H :    0.040143
  10 H :    0.049171

  Mayer bond orders larger than 0.1
B(  0-O ,  1-C ) :   2.1136 B(  1-C ,  2-N ) :   1.0732 B(  1-C ,  7-H ) :   0.9317
B(  2-N ,  3-C ) :   0.9519 B(  2-N ,  4-C ) :   0.9589 B(  3-C ,  4-C ) :   1.0329
B(  3-C ,  8-H ) :   0.9375 B(  3-C ,  9-H ) :   0.9374 B(  4-C ,  5-C ) :   1.0748
B(  4-C , 10-H ) :   0.9145 B(  5-C ,  6-N ) :   3.0450

FINAL SINGLE POINT ENERGY      -338.847102886359

DIPOLE MOMENT
-------------
                                X             Y             Z
Electronic contribution:      1.04962       1.59332       0.69278
Nuclear contribution   :     -1.64179      -1.90583      -1.22738
                        -----------------------------------------
Total Dipole Moment    :     -0.59217      -0.31251      -0.53460
                        -----------------------------------------
Magnitude (a.u.)       :      0.85681
Magnitude (Debye)      :      2.17783

                             ****ORCA TERMINATED NORMALLY****
TOTAL RUN TIME: 0 days 0 hours 0 minutes 5 seconds 793 msec
