                         Program Version 3.0.3 - RELEASE   -
|  1> ! RI PBE def2-SVP def2-SVP/J NBO PAL2
|  2> % maxcore 2000
|  3> % output
|  4>     # printlevel mini
|  5>     print[ P_Basis ] 0
|  6>     print[ P_SCFInfo ] 1
|  7>     print[ P_SCFIterInfo ] 1
|  8>     print[ P_OrbEn ] 0
|  9>     print[ P_Cartesian ] 0
| 10> end
| 11> *xyz 0 1
| 12>  O        2.7461670000    -1.1104460000    -0.1695020000
| 13>  C        2.4477550000    -0.0068400000     0.1880500000
| 14>  N        2.9803150000     1.1615350000    -0.3054860000
| 15>  C        2.7001310000     2.5585560000     0.0438080000
| 16>  C        3.7450250000     2.9791170000    -1.0080010000
| 17>  C        3.9442790000     1.4902200000    -1.2786160000
| 18>  O        4.6172260000     0.8276090000    -1.9976760000
| 19>  H        1.6903380000     0.1969580000     0.9706170000
| 20>  H        2.9547070000     2.8078770000     1.0749810000
| 21>  H        1.6754320000     2.8635430000    -0.1735910000
| 22>  H        4.6338660000     3.4760480000    -0.6206400000
| 23>  H        3.3595490000     3.5315020000    -1.8643330000
| 24> *
| 25>
| 26>                          ****END OF INPUT****
 Total Charge           Charge          ....    0
 Multiplicity           Mult            ....    1
 Number of Electrons    NEL             ....   52
 Basis Dimension        Dim             ....  123

MULLIKEN ATOMIC CHARGES
-----------------------
   0 O :   -0.164583
   1 C :    0.172767
   2 N :   -0.276948
   3 C :    0.172996
   4 C :   -0.108947
   5 C :    0.120055
   6 O :   -0.108496
   7 H :   -0.013888
   8 H :    0.039566
   9 H :    0.039293
  10 H :    0.063592
  11 H :    0.064593
Sum of atomic charges:    0.0000000

LOEWDIN ATOMIC CHARGES
----------------------
   0 O :   -0.117422
   1 C :    0.072579
   2 N :   -0.043674
   3 C :    0.054977
   4 C :   -0.058631
   5 C :    0.052552
   6 O :   -0.095773
   7 H :   -0.013260
   8 H :    0.026780
   9 H :    0.026715
  10 H :    0.047507
  11 H :    0.047652

  Mayer bond orders larger than 0.1
B(  0-O ,  1-C ) :   2.1281 B(  1-C ,  2-N ) :   1.0483 B(  1-C ,  7-H ) :   0.9223
B(  2-N ,  3-C ) :   0.9881 B(  2-N ,  5-C ) :   1.0147 B(  3-C ,  4-C ) :   1.1089
B(  3-C ,  8-H ) :   0.9369 B(  3-C ,  9-H ) :   0.9367 B(  4-C ,  5-C ) :   0.9726
B(  4-C , 10-H ) :   0.9162 B(  4-C , 11-H ) :   0.9164 B(  5-C ,  6-O ) :   2.2312

FINAL SINGLE POINT ENERGY      -359.948344431745

DIPOLE MOMENT
-------------
                                X             Y             Z
Electronic contribution:      1.40318      -5.05779      -1.66152
Nuclear contribution   :     -2.09744       6.88090       2.45551
                        -----------------------------------------
Total Dipole Moment    :     -0.69426       1.82311       0.79399
                        -----------------------------------------
Magnitude (a.u.)       :      2.10621
Magnitude (Debye)      :      5.35357

                             ****ORCA TERMINATED NORMALLY****
TOTAL RUN TIME: 0 days 0 hours 0 minutes 5 seconds 618 msec
