                         Program Version 3.0.3 - RELEASE   -
|  1> ! RI PBE def2-SVP def2-SVP/J NBO PAL2
|  2> % maxcore 2000
|  3> % output
|  4>     # printlevel mini
|  5>     print[ P_Basis ] 0
|  6>     print[ P_SCFInfo ] 1
|  7>     print[ P_SCFIterInfo ] 1
|  8>     print[ P_OrbEn ] 0
|  9>     print[ P_Cartesian ] 0
| 10> end
| 11> *xyz 0 1
| 12>  O        2.2407840000    -1.0047230000     0.5120980000
| 13>  C        2.2684980000     0.0371590000    -0.0777140000
| 14>  N        2.9638280000     0.2491980000    -1.2551510000
| 15>  C        3.0023700000     1.4479210000    -1.9443060000
| 16>  C        3.7799110000     1.2721560000    -3.0439260000
| 17>  C        4.2369010000    -0.0822010000    -3.0326730000
| 18>  C        3.7231400000    -0.6856140000    -1.9278920000
| 19>  H        1.7391400000     0.9464360000     0.2556220000
| 20>  H        2.4679550000     2.3100480000    -1.5781550000
| 21>  H        4.0051340000     2.0237550000    -3.7842380000
| 22>  H        4.8754200000    -0.5513490000    -3.7649710000
| 23>  H        3.8130270000    -1.6861960000    -1.5397850000
| 24> *
| 25>
| 26>                          ****END OF INPUT****
 Total Charge           Charge          ....    0
 Multiplicity           Mult            ....    1
 Number of Electrons    NEL             ....   50
 Basis Dimension        Dim             ....  123

MULLIKEN ATOMIC CHARGES
-----------------------
   0 O :   -0.170500
   1 C :    0.179800
   2 N :   -0.142812
   3 C :    0.074408
   4 C :   -0.024512
   5 C :   -0.017679
   6 C :    0.081087
   7 H :   -0.003155
   8 H :    0.008436
   9 H :   -0.001707
  10 H :   -0.000609
  11 H :    0.017244
Sum of atomic charges:   -0.0000000

LOEWDIN ATOMIC CHARGES
----------------------
   0 O :   -0.119313
   1 C :    0.091370
   2 N :    0.059626
   3 C :   -0.016614
   4 C :   -0.062729
   5 C :   -0.056298
   6 C :   -0.004446
   7 H :   -0.004896
   8 H :    0.024018
   9 H :    0.030091
  10 H :    0.030200
  11 H :    0.028990

  Mayer bond orders larger than 0.1
B(  0-O ,  1-C ) :   2.1088 B(  1-C ,  2-N ) :   1.0410 B(  1-C ,  7-H ) :   0.9282
B(  2-N ,  3-C ) :   1.1138 B(  2-N ,  6-C ) :   1.1201 B(  3-C ,  4-C ) :   1.5405
B(  3-C ,  8-H ) :   0.9825 B(  4-C ,  5-C ) :   1.2374 B(  4-C ,  9-H ) :   1.0034
B(  5-C ,  6-C ) :   1.5312 B(  5-C , 10-H ) :   1.0063 B(  6-C , 11-H ) :   0.9932

FINAL SINGLE POINT ENERGY      -322.886034367604

DIPOLE MOMENT
-------------
                                X             Y             Z
Electronic contribution:     -1.06080      -1.42646       2.38221
Nuclear contribution   :      1.10721       2.12883      -2.81636
                        -----------------------------------------
Total Dipole Moment    :      0.04640       0.70237      -0.43415
                        -----------------------------------------
Magnitude (a.u.)       :      0.82702
Magnitude (Debye)      :      2.10212

                             ****ORCA TERMINATED NORMALLY****
TOTAL RUN TIME: 0 days 0 hours 0 minutes 6 seconds 70 msec
