                         Program Version 3.0.3 - RELEASE   -
|  1> ! RI PBE def2-SVP def2-SVP/J NBO PAL2
|  2> % maxcore 2000
|  3> % output
|  4>     # printlevel mini
|  5>     print[ P_Basis ] 0
|  6>     print[ P_SCFInfo ] 1
|  7>     print[ P_SCFIterInfo ] 1
|  8>     print[ P_OrbEn ] 0
|  9>     print[ P_Cartesian ] 0
| 10> end
| 11> *xyz 0 1
| 12>  O        1.9540910000    -1.1655740000    -0.3116030000
| 13>  C        2.0040510000    -0.0999920000     0.2661780000
| 14>  N        2.8732650000     0.1987520000     1.2462110000
| 15>  C        2.9657460000     1.4822690000     1.9228610000
| 16>  C        4.3772770000     1.4603520000     2.4940170000
| 17>  C        4.5756920000    -0.0139450000     2.8384630000
| 18>  C        3.8923280000    -0.7437460000     1.6858620000
| 19>  H        1.3225780000     0.7399670000     0.0290350000
| 20>  H        2.2249660000     1.5585990000     2.7290380000
| 21>  H        2.7938580000     2.3066950000     1.2275870000
| 22>  H        4.4939370000     2.1262930000     3.3498200000
| 23>  H        5.0925990000     1.7670730000     1.7254990000
| 24>  H        4.0721590000    -0.2462210000     3.7813260000
| 25>  H        5.6239030000    -0.2946500000     2.9451320000
| 26>  H        3.4396760000    -1.6934920000     1.9777090000
| 27>  H        4.5829750000    -0.9543810000     0.8625420000
| 28> *
| 29>
| 30>                          ****END OF INPUT****
 Total Charge           Charge          ....    0
 Multiplicity           Mult            ....    1
 Number of Electrons    NEL             ....   54
 Basis Dimension        Dim             ....  143

MULLIKEN ATOMIC CHARGES
-----------------------
   0 O :   -0.242769
   1 C :    0.150751
   2 N :   -0.307216
   3 C :    0.159644
   4 C :   -0.062222
   5 C :   -0.061788
   6 C :    0.177232
   7 H :   -0.032880
   8 H :    0.027163
   9 H :    0.025364
  10 H :    0.027196
  11 H :    0.033141
  12 H :    0.022545
  13 H :    0.027223
  14 H :    0.028541
  15 H :    0.028075
Sum of atomic charges:   -0.0000000

LOEWDIN ATOMIC CHARGES
----------------------
   0 O :   -0.193031
   1 C :    0.042740
   2 N :   -0.039485
   3 C :    0.034924
   4 C :   -0.042662
   5 C :   -0.043522
   6 C :    0.040339
   7 H :   -0.019961
   8 H :    0.019864
   9 H :    0.025962
  10 H :    0.030380
  11 H :    0.030694
  12 H :    0.028603
  13 H :    0.031502
  14 H :    0.028544
  15 H :    0.025109

  Mayer bond orders larger than 0.1
B(  0-O ,  1-C ) :   2.0124 B(  1-C ,  2-N ) :   1.2045 B(  1-C ,  7-H ) :   0.9246
B(  2-N ,  3-C ) :   0.9683 B(  2-N ,  6-C ) :   0.9585 B(  3-C ,  4-C ) :   1.0845
B(  3-C ,  8-H ) :   0.9395 B(  3-C ,  9-H ) :   0.9355 B(  4-C ,  5-C ) :   1.1068
B(  4-C , 10-H ) :   0.9389 B(  4-C , 11-H ) :   0.9369 B(  5-C ,  6-C ) :   1.0775
B(  5-C , 12-H ) :   0.9345 B(  5-C , 13-H ) :   0.9408 B(  6-C , 14-H ) :   0.9388
B(  6-C , 15-H ) :   0.9431

FINAL SINGLE POINT ENERGY      -325.289945703025

DIPOLE MOMENT
-------------
                                X             Y             Z
Electronic contribution:     -3.66236      -2.70504      -4.29923
Nuclear contribution   :      4.34095       3.72487       5.36841
                        -----------------------------------------
Total Dipole Moment    :      0.67859       1.01983       1.06917
                        -----------------------------------------
Magnitude (a.u.)       :      1.62594
Magnitude (Debye)      :      4.13281

                             ****ORCA TERMINATED NORMALLY****
TOTAL RUN TIME: 0 days 0 hours 0 minutes 7 seconds 322 msec
