                         Program Version 3.0.3 - RELEASE   -
|  1> ! RI PBE def2-SVP def2-SVP/J NBO PAL2
|  2> % maxcore 2000
|  3> % output
|  4>     # printlevel mini
|  5>     print[ P_Basis ] 0
|  6>     print[ P_SCFInfo ] 1
|  7>     print[ P_SCFIterInfo ] 1
|  8>     print[ P_OrbEn ] 0
|  9>     print[ P_Cartesian ] 0
| 10> end
| 11> *xyz 0 1
| 12>  O        1.0803340000     0.1448250000     0.6200120000
| 13>  C        2.2366490000     0.2075280000     0.2615940000
| 14>  N        2.9301720000     1.3496730000     0.1165970000
| 15>  C        4.3179160000     1.4369850000    -0.3123650000
| 16>  C        4.5549630000     2.9131960000    -0.2938160000
| 17>  C        3.4714180000     3.5748760000     0.0870830000
| 18>  C        2.3367180000     2.6502850000     0.3842960000
| 19>  H        2.8366580000    -0.6906320000     0.0174890000
| 20>  H        4.4652390000     1.0109100000    -1.3134780000
| 21>  H        4.9926660000     0.9050810000     0.3712070000
| 22>  H        5.5072360000     3.3495410000    -0.5645770000
| 23>  H        3.3861290000     4.6493840000     0.1813410000
| 24>  H        1.4614220000     2.8243770000    -0.2532350000
| 25>  H        1.9858510000     2.7190730000     1.4211510000
| 26> *
| 27>
| 28>                          ****END OF INPUT****
 Total Charge           Charge          ....    0
 Multiplicity           Mult            ....    1
 Number of Electrons    NEL             ....   52
 Basis Dimension        Dim             ....  133

MULLIKEN ATOMIC CHARGES
-----------------------
   0 O :   -0.241246
   1 C :    0.155670
   2 N :   -0.320998
   3 C :    0.232455
   4 C :   -0.104369
   5 C :   -0.098027
   6 C :    0.235041
   7 H :   -0.029771
   8 H :    0.034808
   9 H :    0.037806
  10 H :    0.007793
  11 H :    0.012261
  12 H :    0.040804
  13 H :    0.037773
Sum of atomic charges:   -0.0000000

LOEWDIN ATOMIC CHARGES
----------------------
   0 O :   -0.189892
   1 C :    0.045809
   2 N :   -0.036291
   3 C :    0.040817
   4 C :   -0.038600
   5 C :   -0.033281
   6 C :    0.044308
   7 H :   -0.018362
   8 H :    0.028904
   9 H :    0.029661
  10 H :    0.029556
  11 H :    0.031222
  12 H :    0.033303
  13 H :    0.032847

  Mayer bond orders larger than 0.1
B(  0-O ,  1-C ) :   2.0157 B(  1-C ,  2-N ) :   1.2003 B(  1-C ,  7-H ) :   0.9262
B(  2-N ,  3-C ) :   0.9640 B(  2-N ,  6-C ) :   0.9548 B(  3-C ,  4-C ) :   1.0284
B(  3-C ,  8-H ) :   0.9198 B(  3-C ,  9-H ) :   0.9195 B(  4-C ,  5-C ) :   1.8952
B(  4-C , 10-H ) :   0.9865 B(  5-C ,  6-C ) :   1.0200 B(  5-C , 11-H ) :   0.9882
B(  6-C , 12-H ) :   0.9219 B(  6-C , 13-H ) :   0.9214

FINAL SINGLE POINT ENERGY      -324.069690855843

DIPOLE MOMENT
-------------
                                X             Y             Z
Electronic contribution:     -2.43253      -1.88152       0.64226
Nuclear contribution   :      3.72040       2.63011      -0.99898
                        -----------------------------------------
Total Dipole Moment    :      1.28786       0.74859      -0.35672
                        -----------------------------------------
Magnitude (a.u.)       :      1.53174
Magnitude (Debye)      :      3.89337

                             ****ORCA TERMINATED NORMALLY****
TOTAL RUN TIME: 0 days 0 hours 0 minutes 6 seconds 744 msec
