                         Program Version 3.0.3 - RELEASE   -
|  1> ! RI PBE def2-SVP def2-SVP/J NBO PAL2
|  2> % maxcore 2000
|  3> % output
|  4>     # printlevel mini
|  5>     print[ P_Basis ] 0
|  6>     print[ P_SCFInfo ] 1
|  7>     print[ P_SCFIterInfo ] 1
|  8>     print[ P_OrbEn ] 0
|  9>     print[ P_Cartesian ] 0
| 10> end
| 11> *xyz 0 1
| 12>  O        1.9371500000     0.9424440000    -0.6407580000
| 13>  C        2.3678070000     0.0683150000     0.0775290000
| 14>  N        2.8164990000     0.2519430000     1.3415410000
| 15>  C        3.3409270000    -0.8019800000     2.2142790000
| 16>  C        3.7043000000    -0.0656920000     3.5224540000
| 17>  C        3.3366080000     1.3627080000     3.2340360000
| 18>  C        2.8473260000     1.4780240000     2.0042320000
| 19>  H        2.4393610000    -0.9884520000    -0.2408330000
| 20>  H        4.2125260000    -1.2743410000     1.7559280000
| 21>  H        2.5833490000    -1.5719580000     2.3756690000
| 22>  H        4.7662060000    -0.1726730000     3.7632000000
| 23>  H        3.1493090000    -0.4646990000     4.3767860000
| 24>  H        3.4564660000     2.1753600000     3.9347750000
| 25>  H        2.4888560000     2.3491110000     1.4768630000
| 26> *
| 27>
| 28>                          ****END OF INPUT****
 Total Charge           Charge          ....    0
 Multiplicity           Mult            ....    1
 Number of Electrons    NEL             ....   52
 Basis Dimension        Dim             ....  133

MULLIKEN ATOMIC CHARGES
-----------------------
   0 O :   -0.229576
   1 C :    0.153594
   2 N :   -0.244882
   3 C :    0.145409
   4 C :    0.020370
   5 C :   -0.125991
   6 C :    0.131365
   7 H :   -0.025010
   8 H :    0.035403
   9 H :    0.038627
  10 H :    0.034321
  11 H :    0.034418
  12 H :    0.009828
  13 H :    0.022124
Sum of atomic charges:   -0.0000000

LOEWDIN ATOMIC CHARGES
----------------------
   0 O :   -0.179658
   1 C :    0.047003
   2 N :   -0.007706
   3 C :    0.048859
   4 C :   -0.036340
   5 C :   -0.072955
   6 C :    0.028152
   7 H :   -0.016236
   8 H :    0.028284
   9 H :    0.028766
  10 H :    0.034618
  11 H :    0.034727
  12 H :    0.029037
  13 H :    0.033449

  Mayer bond orders larger than 0.1
B(  0-O ,  1-C ) :   2.0240 B(  1-C ,  2-N ) :   1.1489 B(  1-C ,  7-H ) :   0.9262
B(  2-N ,  3-C ) :   0.9595 B(  2-N ,  6-C ) :   1.0372 B(  3-C ,  4-C ) :   1.1012
B(  3-C ,  8-H ) :   0.9424 B(  3-C ,  9-H ) :   0.9432 B(  4-C ,  5-C ) :   1.0732
B(  4-C , 10-H ) :   0.9238 B(  4-C , 11-H ) :   0.9235 B(  5-C ,  6-C ) :   1.7463
B(  5-C , 12-H ) :   0.9927 B(  6-C , 13-H ) :   0.9877

FINAL SINGLE POINT ENERGY      -324.074315115527

DIPOLE MOMENT
-------------
                                X             Y             Z
Electronic contribution:     -2.06031       2.14260      -4.38618
Nuclear contribution   :      2.64786      -2.86442       5.58543
                        -----------------------------------------
Total Dipole Moment    :      0.58755      -0.72182       1.19925
                        -----------------------------------------
Magnitude (a.u.)       :      1.51804
Magnitude (Debye)      :      3.85855

                             ****ORCA TERMINATED NORMALLY****
TOTAL RUN TIME: 0 days 0 hours 0 minutes 6 seconds 337 msec
