                         Program Version 3.0.3 - RELEASE   -
|  1> ! RI PBE def2-SVP def2-SVP/J NBO PAL2
|  2> % maxcore 2000
|  3> % output
|  4>     # printlevel mini
|  5>     print[ P_Basis ] 0
|  6>     print[ P_SCFInfo ] 1
|  7>     print[ P_SCFIterInfo ] 1
|  8>     print[ P_OrbEn ] 0
|  9>     print[ P_Cartesian ] 0
| 10> end
| 11> *xyz 0 1
| 12>  O        2.4775280000    -1.1080290000     0.1769070000
| 13>  C        2.1997170000     0.0458040000     0.0878760000
| 14>  N        2.8187860000     1.0796640000     0.7953140000
| 15>  C        2.4957420000     2.4051490000     0.6895350000
| 16>  C        3.3240660000     3.0754100000     1.5353960000
| 17>  C        4.1246470000     2.0602900000     2.1180840000
| 18>  N        3.8172780000     0.8660260000     1.6706750000
| 19>  H        1.4101860000     0.4490470000    -0.5711700000
| 20>  H        1.7136030000     2.7428790000     0.0279110000
| 21>  H        3.3571500000     4.1372510000     1.7153550000
| 22>  H        4.9133980000     2.1681080000     2.8486270000
| 23> *
| 24>
| 25>                          ****END OF INPUT****
 Total Charge           Charge          ....    0
 Multiplicity           Mult            ....    1
 Number of Electrons    NEL             ....   50
 Basis Dimension        Dim             ....  118

MULLIKEN ATOMIC CHARGES
-----------------------
   0 O :   -0.126764
   1 C :    0.183477
   2 N :   -0.117456
   3 C :    0.121624
   4 C :   -0.084802
   5 C :    0.049744
   6 N :   -0.069085
   7 H :   -0.004692
   8 H :    0.019013
   9 H :    0.011780
  10 H :    0.017161
Sum of atomic charges:   -0.0000000

LOEWDIN ATOMIC CHARGES
----------------------
   0 O :   -0.083932
   1 C :    0.086360
   2 N :    0.079760
   3 C :   -0.002362
   4 C :   -0.083332
   5 C :   -0.020126
   6 N :   -0.062164
   7 H :   -0.006445
   8 H :    0.030166
   9 H :    0.035083
  10 H :    0.026991

  Mayer bond orders larger than 0.1
B(  0-O ,  1-C ) :   2.1830 B(  1-C ,  2-N ) :   0.9831 B(  1-C ,  7-H ) :   0.9231
B(  2-N ,  3-C ) :   1.1244 B(  2-N ,  6-N ) :   1.1018 B(  3-C ,  4-C ) :   1.5149
B(  3-C ,  6-N ) :   0.1292 B(  3-C ,  8-H ) :   0.9762 B(  4-C ,  5-C ) :   1.2402
B(  4-C ,  9-H ) :   0.9896 B(  5-C ,  6-N ) :   1.6262 B(  5-C , 10-H ) :   0.9899

FINAL SINGLE POINT ENERGY      -338.893288647594

DIPOLE MOMENT
-------------
                                X             Y             Z
Electronic contribution:      0.13505      -3.10847      -0.31294
Nuclear contribution   :     -0.63817       4.57018       0.06667
                        -----------------------------------------
Total Dipole Moment    :     -0.50312       1.46171      -0.24628
                        -----------------------------------------
Magnitude (a.u.)       :      1.56536
Magnitude (Debye)      :      3.97884

                             ****ORCA TERMINATED NORMALLY****
TOTAL RUN TIME: 0 days 0 hours 0 minutes 5 seconds 733 msec
