                         Program Version 3.0.3 - RELEASE   -
|  1> ! RI PBE def2-SVP def2-SVP/J NBO PAL2
|  2> % maxcore 2000
|  3> % output
|  4>     # printlevel mini
|  5>     print[ P_Basis ] 0
|  6>     print[ P_SCFInfo ] 1
|  7>     print[ P_SCFIterInfo ] 1
|  8>     print[ P_OrbEn ] 0
|  9>     print[ P_Cartesian ] 0
| 10> end
| 11> *xyz 0 1
| 12>  O        3.3156010000    -1.1443390000     0.0570260000
| 13>  C        3.1362490000     0.0424340000    -0.1416810000
| 14>  N        2.7199350000     0.5536970000    -1.3123900000
| 15>  C        2.8047620000     1.9304060000    -1.7470790000
| 16>  C        3.3729650000     1.8199730000    -3.1785010000
| 17>  C        3.6292410000     0.3221190000    -3.3491350000
| 18>  N        2.6325940000    -0.2673060000    -2.4534040000
| 19>  H        3.2556190000     0.8174100000     0.6359780000
| 20>  H        3.4466180000     2.4909680000    -1.0663760000
| 21>  H        1.8161530000     2.3963290000    -1.7556690000
| 22>  H        4.2814750000     2.4070650000    -3.3124980000
| 23>  H        2.6347530000     2.1685050000    -3.9010290000
| 24>  H        4.6549240000     0.0719890000    -3.0445920000
| 25>  H        3.4679310000    -0.0250700000    -4.3699550000
| 26>  H        2.8804800000    -1.2023770000    -2.1361060000
| 27> *
| 28>
| 29>                          ****END OF INPUT****
 Total Charge           Charge          ....    0
 Multiplicity           Mult            ....    1
 Number of Electrons    NEL             ....   54
 Basis Dimension        Dim             ....  138

MULLIKEN ATOMIC CHARGES
-----------------------
   0 O :   -0.256894
   1 C :    0.145361
   2 N :   -0.217493
   3 C :    0.180719
   4 C :   -0.090342
   5 C :    0.128524
   6 N :   -0.137740
   7 H :   -0.021823
   8 H :    0.030533
   9 H :    0.032611
  10 H :    0.027733
  11 H :    0.028250
  12 H :    0.014084
  13 H :    0.026823
  14 H :    0.109655
Sum of atomic charges:    0.0000000

LOEWDIN ATOMIC CHARGES
----------------------
   0 O :   -0.204203
   1 C :    0.020208
   2 N :    0.018678
   3 C :    0.034822
   4 C :   -0.049711
   5 C :    0.015957
   6 N :   -0.033129
   7 H :   -0.012594
   8 H :    0.028994
   9 H :    0.027207
  10 H :    0.031895
  11 H :    0.033303
  12 H :    0.008760
  13 H :    0.027081
  14 H :    0.052733

  Mayer bond orders larger than 0.1
B(  0-O ,  1-C ) :   1.9612 B(  0-O ,  2-N ) :   0.1093 B(  1-C ,  2-N ) :   1.2031
B(  1-C ,  7-H ) :   0.9222 B(  2-N ,  3-C ) :   0.9734 B(  2-N ,  6-N ) :   0.9928
B(  3-C ,  4-C ) :   1.0940 B(  3-C ,  8-H ) :   0.9386 B(  3-C ,  9-H ) :   0.9347
B(  4-C ,  5-C ) :   1.1259 B(  4-C , 10-H ) :   0.9354 B(  4-C , 11-H ) :   0.9216
B(  5-C ,  6-N ) :   0.9990 B(  5-C , 12-H ) :   0.9352 B(  5-C , 13-H ) :   0.9437
B(  6-N , 14-H ) :   0.9194

FINAL SINGLE POINT ENERGY      -341.273392941896

DIPOLE MOMENT
-------------
                                X             Y             Z
Electronic contribution:     -1.25969      -3.97023       4.01906
Nuclear contribution   :      1.55368       5.21113      -4.85856
                        -----------------------------------------
Total Dipole Moment    :      0.29398       1.24090      -0.83950
                        -----------------------------------------
Magnitude (a.u.)       :      1.52677
Magnitude (Debye)      :      3.88073

                             ****ORCA TERMINATED NORMALLY****
TOTAL RUN TIME: 0 days 0 hours 0 minutes 6 seconds 711 msec
