                         Program Version 3.0.3 - RELEASE   -
|  1> ! RI PBE def2-SVP def2-SVP/J NBO PAL2
|  2> % maxcore 2000
|  3> % output
|  4>     # printlevel mini
|  5>     print[ P_Basis ] 0
|  6>     print[ P_SCFInfo ] 1
|  7>     print[ P_SCFIterInfo ] 1
|  8>     print[ P_OrbEn ] 0
|  9>     print[ P_Cartesian ] 0
| 10> end
| 11> *xyz 0 1
| 12>  O        2.6012140000     1.1501540000     0.0844910000
| 13>  C        2.2305410000     0.0262210000    -0.1290960000
| 14>  N        2.9544630000    -0.9741000000    -0.7036700000
| 15>  C        2.4597260000    -2.3355550000    -0.9456320000
| 16>  C        3.6721940000    -3.0130520000    -1.5975520000
| 17>  C        4.6646220000    -1.8872900000    -1.6112650000
| 18>  N        4.2430150000    -0.7944220000    -1.1185640000
| 19>  H        1.2158540000    -0.3367690000     0.1291240000
| 20>  H        1.5895270000    -2.3177320000    -1.6048130000
| 21>  H        2.1715610000    -2.8132420000    -0.0071090000
| 22>  H        3.4636940000    -3.3750500000    -2.6075640000
| 23>  H        4.0421600000    -3.8654730000    -1.0220730000
| 24>  H        5.6738490000    -1.9474900000    -1.9984670000
| 25> *
| 26>
| 27>                          ****END OF INPUT****
 Total Charge           Charge          ....    0
 Multiplicity           Mult            ....    1
 Number of Electrons    NEL             ....   52
 Basis Dimension        Dim             ....  128

MULLIKEN ATOMIC CHARGES
-----------------------
   0 O :   -0.185862
   1 C :    0.155546
   2 N :   -0.222121
   3 C :    0.164519
   4 C :   -0.059233
   5 C :   -0.028225
   6 N :   -0.008831
   7 H :   -0.033491
   8 H :    0.044116
   9 H :    0.042990
  10 H :    0.049883
  11 H :    0.050473
  12 H :    0.030237
Sum of atomic charges:   -0.0000000

LOEWDIN ATOMIC CHARGES
----------------------
   0 O :   -0.148516
   1 C :    0.042226
   2 N :    0.004122
   3 C :    0.033361
   4 C :   -0.060608
   5 C :   -0.023329
   6 N :   -0.004299
   7 H :   -0.019026
   8 H :    0.031067
   9 H :    0.031100
  10 H :    0.043503
  11 H :    0.043583
  12 H :    0.026814

  Mayer bond orders larger than 0.1
B(  0-O ,  1-C ) :   2.1143 B(  1-C ,  2-N ) :   1.1039 B(  1-C ,  7-H ) :   0.9161
B(  2-N ,  3-C ) :   0.9173 B(  2-N ,  6-N ) :   1.0326 B(  3-C ,  4-C ) :   1.1069
B(  3-C ,  8-H ) :   0.9433 B(  3-C ,  9-H ) :   0.9425 B(  4-C ,  5-C ) :   1.0250
B(  4-C , 10-H ) :   0.9210 B(  4-C , 11-H ) :   0.9208 B(  5-C ,  6-N ) :   1.8733
B(  5-C , 12-H ) :   0.9744

FINAL SINGLE POINT ENERGY      -340.076783839838

DIPOLE MOMENT
-------------
                                X             Y             Z
Electronic contribution:      0.88264       5.43378       1.36182
Nuclear contribution   :     -1.17158      -7.53225      -1.90799
                        -----------------------------------------
Total Dipole Moment    :     -0.28894      -2.09847      -0.54617
                        -----------------------------------------
Magnitude (a.u.)       :      2.18755
Magnitude (Debye)      :      5.56031

                             ****ORCA TERMINATED NORMALLY****
TOTAL RUN TIME: 0 days 0 hours 0 minutes 6 seconds 192 msec
