                         Program Version 3.0.3 - RELEASE   -
|  1> ! RI PBE def2-SVP def2-SVP/J NBO PAL2
|  2> % maxcore 2000
|  3> % output
|  4>     # printlevel mini
|  5>     print[ P_Basis ] 0
|  6>     print[ P_SCFInfo ] 1
|  7>     print[ P_SCFIterInfo ] 1
|  8>     print[ P_OrbEn ] 0
|  9>     print[ P_Cartesian ] 0
| 10> end
| 11> *xyz 0 1
| 12>  O        1.6632940000    -1.3698600000     0.5930080000
| 13>  C        2.0033680000    -0.2394110000     0.8179730000
| 14>  N        3.2894820000     0.2144240000     0.9285820000
| 15>  C        3.6713190000     1.3394320000     1.7603000000
| 16>  C        4.4704090000     0.6848980000     2.9034270000
| 17>  C        4.5973970000    -0.7663450000     2.4289090000
| 18>  O        4.2929370000    -0.7313070000     1.0331980000
| 19>  H        1.2975260000     0.6112620000     0.8965290000
| 20>  H        2.7814450000     1.8734930000     2.0939970000
| 21>  H        4.2965930000     2.0256470000     1.1862100000
| 22>  H        3.9472670000     0.7475110000     3.8578630000
| 23>  H        5.4436520000     1.1621620000     3.0170600000
| 24>  H        3.8830060000    -1.4215220000     2.9381050000
| 25>  H        5.6009950000    -1.1798840000     2.5206300000
| 26> *
| 27>
| 28>                          ****END OF INPUT****
 Total Charge           Charge          ....    0
 Multiplicity           Mult            ....    1
 Number of Electrons    NEL             ....   54
 Basis Dimension        Dim             ....  133

MULLIKEN ATOMIC CHARGES
-----------------------
   0 O :   -0.190935
   1 C :    0.139656
   2 N :   -0.115852
   3 C :    0.156613
   4 C :   -0.097312
   5 C :    0.197368
   6 O :   -0.260793
   7 H :   -0.026265
   8 H :    0.029834
   9 H :    0.040781
  10 H :    0.028737
  11 H :    0.030246
  12 H :    0.034476
  13 H :    0.033445
Sum of atomic charges:   -0.0000000

LOEWDIN ATOMIC CHARGES
----------------------
   0 O :   -0.154398
   1 C :    0.026405
   2 N :    0.037274
   3 C :    0.025704
   4 C :   -0.063658
   5 C :    0.064372
   6 O :   -0.090666
   7 H :   -0.016366
   8 H :    0.030898
   9 H :    0.027527
  10 H :    0.033300
  11 H :    0.034129
  12 H :    0.016894
  13 H :    0.028585

  Mayer bond orders larger than 0.1
B(  0-O ,  1-C ) :   2.1068 B(  1-C ,  2-N ) :   1.1121 B(  1-C ,  7-H ) :   0.9082
B(  2-N ,  3-C ) :   0.9750 B(  2-N ,  6-O ) :   0.9388 B(  3-C ,  4-C ) :   1.0933
B(  3-C ,  8-H ) :   0.9302 B(  3-C ,  9-H ) :   0.9400 B(  4-C ,  5-C ) :   1.1166
B(  4-C , 10-H ) :   0.9302 B(  4-C , 11-H ) :   0.9266 B(  5-C ,  6-O ) :   0.9717
B(  5-C , 12-H ) :   0.9428 B(  5-C , 13-H ) :   0.9488

FINAL SINGLE POINT ENERGY      -361.085784427088

DIPOLE MOMENT
-------------
                                X             Y             Z
Electronic contribution:     -2.39787      -3.24509      -4.53857
Nuclear contribution   :      3.08348       4.50151       5.67911
                        -----------------------------------------
Total Dipole Moment    :      0.68560       1.25642       1.14054
                        -----------------------------------------
Magnitude (a.u.)       :      1.83015
Magnitude (Debye)      :      4.65188

                             ****ORCA TERMINATED NORMALLY****
TOTAL RUN TIME: 0 days 0 hours 0 minutes 6 seconds 344 msec
