                         Program Version 3.0.3 - RELEASE   -
|  1> ! RI PBE def2-SVP def2-SVP/J NBO PAL2
|  2> % maxcore 2000
|  3> % output
|  4>     # printlevel mini
|  5>     print[ P_Basis ] 0
|  6>     print[ P_SCFInfo ] 1
|  7>     print[ P_SCFIterInfo ] 1
|  8>     print[ P_OrbEn ] 0
|  9>     print[ P_Cartesian ] 0
| 10> end
| 11> *xyz 0 1
| 12>  O        2.5466510000    -1.1042470000     0.1176920000
| 13>  C        2.2644540000     0.0477720000    -0.0285210000
| 14>  N        2.9054420000     0.8955010000    -0.9254400000
| 15>  C        2.6244330000     2.2343150000    -1.1385260000
| 16>  C        3.4975930000     2.6363020000    -2.0935050000
| 17>  N        4.3118290000     1.5925290000    -2.4811400000
| 18>  C        3.9396710000     0.5729000000    -1.7734080000
| 19>  H        1.4663610000     0.5641160000     0.5314780000
| 20>  H        1.8466600000     2.7463580000    -0.5963200000
| 21>  H        3.5954040000     3.6169790000    -2.5321560000
| 22>  H        4.3498920000    -0.4245150000    -1.8015550000
| 23> *
| 24>
| 25>                          ****END OF INPUT****
 Total Charge           Charge          ....    0
 Multiplicity           Mult            ....    1
 Number of Electrons    NEL             ....   50
 Basis Dimension        Dim             ....  118

MULLIKEN ATOMIC CHARGES
-----------------------
   0 O :   -0.158696
   1 C :    0.191262
   2 N :   -0.155782
   3 C :    0.058270
   4 C :    0.010892
   5 N :   -0.129858
   6 C :    0.114072
   7 H :    0.006568
   8 H :    0.017380
   9 H :    0.010730
  10 H :    0.035162
Sum of atomic charges:   -0.0000000

LOEWDIN ATOMIC CHARGES
----------------------
   0 O :   -0.104695
   1 C :    0.100732
   2 N :    0.042811
   3 C :   -0.031464
   4 C :   -0.028750
   5 N :   -0.085246
   6 C :    0.028581
   7 H :   -0.001832
   8 H :    0.028611
   9 H :    0.025042
  10 H :    0.026211

  Mayer bond orders larger than 0.1
B(  0-O ,  1-C ) :   2.1245 B(  1-C ,  2-N ) :   1.0151 B(  1-C ,  7-H ) :   0.9311
B(  2-N ,  3-C ) :   1.1082 B(  2-N ,  6-C ) :   1.1156 B(  3-C ,  4-C ) :   1.5557
B(  3-C ,  8-H ) :   0.9799 B(  4-C ,  5-N ) :   1.3311 B(  4-C ,  9-H ) :   0.9912
B(  5-N ,  6-C ) :   1.6988 B(  6-C , 10-H ) :   0.9728

FINAL SINGLE POINT ENERGY      -338.910384569452

DIPOLE MOMENT
-------------
                                X             Y             Z
Electronic contribution:      0.44554      -1.92187       0.26432
Nuclear contribution   :     -1.20573       2.57124       0.21059
                        -----------------------------------------
Total Dipole Moment    :     -0.76019       0.64938       0.47491
                        -----------------------------------------
Magnitude (a.u.)       :      1.10685
Magnitude (Debye)      :      2.81339

                             ****ORCA TERMINATED NORMALLY****
TOTAL RUN TIME: 0 days 0 hours 0 minutes 5 seconds 755 msec
