                         Program Version 3.0.3 - RELEASE   -
|  1> ! RI PBE def2-SVP def2-SVP/J NBO PAL2
|  2> % maxcore 2000
|  3> % output
|  4>     # printlevel mini
|  5>     print[ P_Basis ] 0
|  6>     print[ P_SCFInfo ] 1
|  7>     print[ P_SCFIterInfo ] 1
|  8>     print[ P_OrbEn ] 0
|  9>     print[ P_Cartesian ] 0
| 10> end
| 11> *xyz 0 1
| 12>  O        2.4996790000     1.1078940000    -0.1364780000
| 13>  C        2.0861080000    -0.0169910000    -0.2734170000
| 14>  N        2.8018100000    -1.0470500000    -0.8063040000
| 15>  C        2.3442630000    -2.4209310000    -0.9916650000
| 16>  C        3.5969220000    -3.0715240000    -1.6249190000
| 17>  N        4.6108200000    -2.0254510000    -1.7329000000
| 18>  C        4.1101020000    -0.9600220000    -1.2712310000
| 19>  H        1.0677520000    -0.3249790000     0.0261690000
| 20>  H        1.4744660000    -2.4561800000    -1.6509600000
| 21>  H        2.0739520000    -2.8739050000    -0.0355500000
| 22>  H        3.3921060000    -3.4791730000    -2.6175970000
| 23>  H        3.9875640000    -3.8907790000    -1.0167990000
| 24>  H        4.6156660000    -0.0042100000    -1.2127400000
| 25> *
| 26>
| 27>                          ****END OF INPUT****
 Total Charge           Charge          ....    0
 Multiplicity           Mult            ....    1
 Number of Electrons    NEL             ....   52
 Basis Dimension        Dim             ....  128

MULLIKEN ATOMIC CHARGES
-----------------------
   0 O :   -0.211197
   1 C :    0.169928
   2 N :   -0.259921
   3 C :    0.114442
   4 C :    0.063370
   5 N :   -0.195098
   6 C :    0.133820
   7 H :   -0.017284
   8 H :    0.040884
   9 H :    0.039858
  10 H :    0.038026
  11 H :    0.040156
  12 H :    0.043015
Sum of atomic charges:    0.0000000

LOEWDIN ATOMIC CHARGES
----------------------
   0 O :   -0.159537
   1 C :    0.061937
   2 N :   -0.024168
   3 C :    0.027674
   4 C :    0.009101
   5 N :   -0.108246
   6 C :    0.052816
   7 H :   -0.012566
   8 H :    0.028950
   9 H :    0.029016
  10 H :    0.032701
  11 H :    0.032907
  12 H :    0.029415

  Mayer bond orders larger than 0.1
B(  0-O ,  1-C ) :   2.0516 B(  1-C ,  2-N ) :   1.1168 B(  1-C ,  7-H ) :   0.9273
B(  2-N ,  3-C ) :   0.9630 B(  2-N ,  6-C ) :   1.0401 B(  3-C ,  4-C ) :   1.0741
B(  3-C ,  8-H ) :   0.9424 B(  3-C ,  9-H ) :   0.9418 B(  4-C ,  5-N ) :   1.0840
B(  4-C , 10-H ) :   0.9343 B(  4-C , 11-H ) :   0.9350 B(  5-N ,  6-C ) :   1.8841
B(  6-C , 12-H ) :   0.9643

FINAL SINGLE POINT ENERGY      -340.103289720940

DIPOLE MOMENT
-------------
                                X             Y             Z
Electronic contribution:      1.19475       4.34685       0.67920
Nuclear contribution   :     -1.99585      -5.52928      -0.68619
                        -----------------------------------------
Total Dipole Moment    :     -0.80109      -1.18243      -0.00699
                        -----------------------------------------
Magnitude (a.u.)       :      1.42827
Magnitude (Debye)      :      3.63037

                             ****ORCA TERMINATED NORMALLY****
TOTAL RUN TIME: 0 days 0 hours 0 minutes 6 seconds 206 msec
