                         Program Version 3.0.3 - RELEASE   -
|  1> ! RI PBE def2-SVP def2-SVP/J NBO PAL2
|  2> % maxcore 2000
|  3> % output
|  4>     # printlevel mini
|  5>     print[ P_Basis ] 0
|  6>     print[ P_SCFInfo ] 1
|  7>     print[ P_SCFIterInfo ] 1
|  8>     print[ P_OrbEn ] 0
|  9>     print[ P_Cartesian ] 0
| 10> end
| 11> *xyz 0 1
| 12>  O        2.4377740000    -1.1123810000     0.1442670000
| 13>  C        2.0893140000     0.0380360000     0.2778310000
| 14>  N        2.8331700000     0.9892420000     0.8678590000
| 15>  C        2.6206180000     2.4066920000     1.1354060000
| 16>  C        4.0172110000     2.3867340000     1.7761200000
| 17>  O        4.6987710000     3.2027070000     2.3018920000
| 18>  C        4.1612990000     0.8965190000     1.4582580000
| 19>  H        1.1121950000     0.4221320000    -0.0729580000
| 20>  H        1.8090620000     2.6377910000     1.8328960000
| 21>  H        2.5408530000     3.0461840000     0.2504170000
| 22>  H        4.2321360000     0.2399030000     2.3309440000
| 23>  H        4.9612860000     0.6466310000     0.7544690000
| 24> *
| 25>
| 26>                          ****END OF INPUT****
 Total Charge           Charge          ....    0
 Multiplicity           Mult            ....    1
 Number of Electrons    NEL             ....   52
 Basis Dimension        Dim             ....  123

MULLIKEN ATOMIC CHARGES
-----------------------
   0 O :   -0.228085
   1 C :    0.150891
   2 N :   -0.299098
   3 C :    0.160759
   4 C :   -0.096527
   5 O :   -0.094726
   6 C :    0.165803
   7 H :   -0.024615
   8 H :    0.063239
   9 H :    0.064907
  10 H :    0.069632
  11 H :    0.067819
Sum of atomic charges:   -0.0000000

LOEWDIN ATOMIC CHARGES
----------------------
   0 O :   -0.178488
   1 C :    0.045210
   2 N :   -0.047676
   3 C :    0.015403
   4 C :    0.056223
   5 O :   -0.067884
   6 C :    0.021121
   7 H :   -0.015242
   8 H :    0.040228
   9 H :    0.040641
  10 H :    0.045432
  11 H :    0.045031

  Mayer bond orders larger than 0.1
B(  0-O ,  1-C ) :   2.0432 B(  1-C ,  2-N ) :   1.1654 B(  1-C ,  7-H ) :   0.9249
B(  2-N ,  3-C ) :   0.9641 B(  2-N ,  6-C ) :   0.9605 B(  3-C ,  4-C ) :   0.9285
B(  3-C ,  6-C ) :  -0.1020 B(  3-C ,  8-H ) :   0.9210 B(  3-C ,  9-H ) :   0.9216
B(  4-C ,  5-O ) :   2.2657 B(  4-C ,  6-C ) :   0.9352 B(  6-C , 10-H ) :   0.9217
B(  6-C , 11-H ) :   0.9221

FINAL SINGLE POINT ENERGY      -359.924047609485

DIPOLE MOMENT
-------------
                                X             Y             Z
Electronic contribution:      1.22451       0.05899       0.58025
Nuclear contribution   :     -1.55547       0.72331      -0.53204
                        -----------------------------------------
Total Dipole Moment    :     -0.33096       0.78230       0.04821
                        -----------------------------------------
Magnitude (a.u.)       :      0.85079
Magnitude (Debye)      :      2.16254

                             ****ORCA TERMINATED NORMALLY****
TOTAL RUN TIME: 0 days 0 hours 0 minutes 6 seconds 530 msec
