                         Program Version 3.0.3 - RELEASE   -
|  1> ! RI PBE def2-SVP def2-SVP/J NBO PAL2
|  2> % maxcore 2000
|  3> % output
|  4>     # printlevel mini
|  5>     print[ P_Basis ] 0
|  6>     print[ P_SCFInfo ] 1
|  7>     print[ P_SCFIterInfo ] 1
|  8>     print[ P_OrbEn ] 0
|  9>     print[ P_Cartesian ] 0
| 10> end
| 11> *xyz 0 1
| 12>  O        1.1578570000     0.0535110000    -0.3108830000
| 13>  C        2.3331850000     0.1686180000    -0.0520600000
| 14>  N        3.0472470000     1.3066860000    -0.2515360000
| 15>  N        4.4123780000     1.4082350000     0.1129520000
| 16>  C        4.5956950000     2.8382750000     0.4254940000
| 17>  C        3.4261360000     3.5088530000    -0.2482610000
| 18>  C        2.5446280000     2.5686140000    -0.5727440000
| 19>  H        2.9668460000    -0.6379610000     0.3533320000
| 20>  H        4.9379460000     1.2188810000    -0.7370220000
| 21>  H        5.5748040000     3.1626280000     0.0684680000
| 22>  H        4.5696740000     3.0007320000     1.5113180000
| 23>  H        3.2920460000     4.5737230000    -0.3595890000
| 24>  H        1.5488480000     2.6420850000    -0.9816700000
| 25> *
| 26>
| 27>                          ****END OF INPUT****
 Total Charge           Charge          ....    0
 Multiplicity           Mult            ....    1
 Number of Electrons    NEL             ....   52
 Basis Dimension        Dim             ....  128

MULLIKEN ATOMIC CHARGES
-----------------------
   0 O :   -0.228624
   1 C :    0.170501
   2 N :   -0.184352
   3 N :   -0.131515
   4 C :    0.169635
   5 C :   -0.182847
   6 C :    0.161503
   7 H :   -0.015356
   8 H :    0.124020
   9 H :    0.027829
  10 H :    0.047498
  11 H :    0.017362
  12 H :    0.024345
Sum of atomic charges:   -0.0000000

LOEWDIN ATOMIC CHARGES
----------------------
   0 O :   -0.177313
   1 C :    0.045397
   2 N :    0.028017
   3 N :   -0.027733
   4 C :    0.021550
   5 C :   -0.086689
   6 C :    0.023546
   7 H :   -0.012071
   8 H :    0.059862
   9 H :    0.028745
  10 H :    0.028542
  11 H :    0.031446
  12 H :    0.036700

  Mayer bond orders larger than 0.1
B(  0-O ,  1-C ) :   2.0270 B(  1-C ,  2-N ) :   1.1204 B(  1-C ,  7-H ) :   0.9269
B(  2-N ,  3-N ) :   0.9908 B(  2-N ,  6-C ) :   1.0080 B(  3-N ,  4-C ) :   1.0340
B(  3-N ,  8-H ) :   0.9435 B(  4-C ,  5-C ) :   1.0262 B(  4-C ,  9-H ) :   0.9452
B(  4-C , 10-H ) :   0.9217 B(  5-C ,  6-C ) :   1.7470 B(  5-C , 11-H ) :   0.9857
B(  6-C , 12-H ) :   0.9875

FINAL SINGLE POINT ENERGY      -340.058406272063

DIPOLE MOMENT
-------------
                                X             Y             Z
Electronic contribution:     -2.96188      -2.85165      -0.76579
Nuclear contribution   :      4.18201       3.77102       0.57533
                        -----------------------------------------
Total Dipole Moment    :      1.22013       0.91937      -0.19046
                        -----------------------------------------
Magnitude (a.u.)       :      1.53956
Magnitude (Debye)      :      3.91324

                             ****ORCA TERMINATED NORMALLY****
TOTAL RUN TIME: 0 days 0 hours 0 minutes 5 seconds 969 msec
