                         Program Version 3.0.3 - RELEASE   -
|  1> ! RI PBE def2-SVP def2-SVP/J NBO PAL2
|  2> % maxcore 2000
|  3> % output
|  4>     # printlevel mini
|  5>     print[ P_Basis ] 0
|  6>     print[ P_SCFInfo ] 1
|  7>     print[ P_SCFIterInfo ] 1
|  8>     print[ P_OrbEn ] 0
|  9>     print[ P_Cartesian ] 0
| 10> end
| 11> *xyz 0 1
| 12>  O        2.3231910000     1.0308190000    -0.5611190000
| 13>  C        2.2562290000     0.0269410000     0.1128230000
| 14>  N        2.7746950000    -0.0659680000     1.3586860000
| 15>  O        2.6493590000    -1.2668050000     2.0631560000
| 16>  C        3.2860990000    -1.0696500000     3.3380220000
| 17>  C        3.7809840000     0.3397780000     3.2954890000
| 18>  C        3.4502820000     0.8615000000     2.1203070000
| 19>  H        1.7752840000    -0.9139610000    -0.1983030000
| 20>  H        4.0895160000    -1.8099250000     3.4448570000
| 21>  H        2.5458740000    -1.2472510000     4.1288670000
| 22>  H        4.3137550000     0.8320160000     4.0927970000
| 23>  H        3.6194330000     1.8393960000     1.6978210000
| 24> *
| 25>
| 26>                          ****END OF INPUT****
 Total Charge           Charge          ....    0
 Multiplicity           Mult            ....    1
 Number of Electrons    NEL             ....   52
 Basis Dimension        Dim             ....  123

MULLIKEN ATOMIC CHARGES
-----------------------
   0 O :   -0.231968
   1 C :    0.162441
   2 N :   -0.020928
   3 O :   -0.285632
   4 C :    0.260960
   5 C :   -0.195633
   6 C :    0.170536
   7 H :   -0.003302
   8 H :    0.042586
   9 H :    0.041436
  10 H :    0.027302
  11 H :    0.032203
Sum of atomic charges:   -0.0000000

LOEWDIN ATOMIC CHARGES
----------------------
   0 O :   -0.179690
   1 C :    0.040297
   2 N :    0.100084
   3 O :   -0.104899
   4 C :    0.084238
   5 C :   -0.087791
   6 C :    0.024119
   7 H :   -0.005706
   8 H :    0.023786
   9 H :    0.023332
  10 H :    0.037241
  11 H :    0.044989

  Mayer bond orders larger than 0.1
B(  0-O ,  1-C ) :   2.0037 B(  1-C ,  2-N ) :   1.1276 B(  1-C ,  7-H ) :   0.9285
B(  2-N ,  3-O ) :   0.9166 B(  2-N ,  6-C ) :   1.0490 B(  3-O ,  4-C ) :   0.9442
B(  4-C ,  5-C ) :   1.0593 B(  4-C ,  8-H ) :   0.9307 B(  4-C ,  9-H ) :   0.9322
B(  5-C ,  6-C ) :   1.7148 B(  5-C , 10-H ) :   0.9783 B(  6-C , 11-H ) :   0.9839

FINAL SINGLE POINT ENERGY      -359.873086105119

DIPOLE MOMENT
-------------
                                X             Y             Z
Electronic contribution:     -1.20848       0.66892      -3.27765
Nuclear contribution   :      1.67110      -1.02744       4.61568
                        -----------------------------------------
Total Dipole Moment    :      0.46262      -0.35851       1.33804
                        -----------------------------------------
Magnitude (a.u.)       :      1.46044
Magnitude (Debye)      :      3.71215

                             ****ORCA TERMINATED NORMALLY****
TOTAL RUN TIME: 0 days 0 hours 0 minutes 5 seconds 774 msec
