                         Program Version 3.0.3 - RELEASE   -
|  1> ! RI PBE def2-SVP def2-SVP/J NBO PAL2
|  2> % maxcore 2000
|  3> % output
|  4>     # printlevel mini
|  5>     print[ P_Basis ] 0
|  6>     print[ P_SCFInfo ] 1
|  7>     print[ P_SCFIterInfo ] 1
|  8>     print[ P_OrbEn ] 0
|  9>     print[ P_Cartesian ] 0
| 10> end
| 11> *xyz 0 1
| 12>  O        0.8571810000     0.0578590000     1.4845700000
| 13>  C        2.0490060000    -0.1016370000     1.6026490000
| 14>  N        2.9453990000    -0.0453110000     0.5918650000
| 15>  C        4.3558640000    -0.2323290000     0.7273170000
| 16>  C        5.0815430000    -1.2711960000    -0.1499900000
| 17>  C        6.2853710000    -0.3104820000    -0.1908650000
| 18>  C        5.3283550000     0.8356120000     0.1892980000
| 19>  H        2.5312020000    -0.3148330000     2.5769570000
| 20>  H        2.5634980000     0.1466760000    -0.3229910000
| 21>  H        4.5595130000    -0.4262890000     1.7839960000
| 22>  H        4.6029100000    -1.3435330000    -1.1304160000
| 23>  H        5.2177120000    -2.2767910000     0.2502010000
| 24>  H        6.8318910000    -0.2234560000    -1.1292170000
| 25>  H        6.9964750000    -0.5226850000     0.6098280000
| 26>  H        4.9142580000     1.3143210000    -0.7022640000
| 27>  H        5.6731420000     1.6095640000     0.8763520000
| 28> *
| 29>
| 30>                          ****END OF INPUT****
 Total Charge           Charge          ....    0
 Multiplicity           Mult            ....    1
 Number of Electrons    NEL             ....   54
 Basis Dimension        Dim             ....  143

MULLIKEN ATOMIC CHARGES
-----------------------
   0 O :   -0.224307
   1 C :    0.106676
   2 N :   -0.057421
   3 C :   -0.119195
   4 C :    0.070219
   5 C :   -0.040912
   6 C :    0.059268
   7 H :   -0.026793
   8 H :    0.105976
   9 H :    0.021402
  10 H :    0.003731
  11 H :    0.022192
  12 H :    0.018880
  13 H :    0.027987
  14 H :    0.005977
  15 H :    0.026318
Sum of atomic charges:    0.0000000

LOEWDIN ATOMIC CHARGES
----------------------
   0 O :   -0.183121
   1 C :    0.044597
   2 N :    0.009899
   3 C :    0.014164
   4 C :   -0.036416
   5 C :   -0.034251
   6 C :   -0.037818
   7 H :   -0.018284
   8 H :    0.072789
   9 H :    0.029448
  10 H :    0.024563
  11 H :    0.019774
  12 H :    0.021203
  13 H :    0.027822
  14 H :    0.025142
  15 H :    0.020489

  Mayer bond orders larger than 0.1
B(  0-O ,  1-C ) :   2.0600 B(  1-C ,  2-N ) :   1.1985 B(  1-C ,  7-H ) :   0.9170
B(  2-N ,  3-C ) :   1.0475 B(  2-N ,  8-H ) :   0.9116 B(  3-C ,  4-C ) :   1.0616
B(  3-C ,  6-C ) :   1.0616 B(  3-C ,  9-H ) :   0.9032 B(  4-C ,  5-C ) :   1.1114
B(  4-C , 10-H ) :   0.9107 B(  4-C , 11-H ) :   0.9348 B(  5-C ,  6-C ) :   1.1140
B(  5-C , 12-H ) :   0.9326 B(  5-C , 13-H ) :   0.9391 B(  6-C , 14-H ) :   0.9109
B(  6-C , 15-H ) :   0.9337

FINAL SINGLE POINT ENERGY      -325.267102746349

DIPOLE MOMENT
-------------
                                X             Y             Z
Electronic contribution:     -7.60017       0.55758       2.09941
Nuclear contribution   :      9.04648      -0.65246      -2.54790
                        -----------------------------------------
Total Dipole Moment    :      1.44631      -0.09488      -0.44848
                        -----------------------------------------
Magnitude (a.u.)       :      1.51722
Magnitude (Debye)      :      3.85646

                             ****ORCA TERMINATED NORMALLY****
TOTAL RUN TIME: 0 days 0 hours 0 minutes 6 seconds 413 msec
