                         Program Version 3.0.3 - RELEASE   -
|  1> ! RI PBE def2-SVP def2-SVP/J NBO PAL2
|  2> % maxcore 2000
|  3> % output
|  4>     # printlevel mini
|  5>     print[ P_Basis ] 0
|  6>     print[ P_SCFInfo ] 1
|  7>     print[ P_SCFIterInfo ] 1
|  8>     print[ P_OrbEn ] 0
|  9>     print[ P_Cartesian ] 0
| 10> end
| 11> *xyz 0 1
| 12>  O        0.7123540000    -0.9507700000     1.4277310000
| 13>  C        1.8604080000    -0.9508160000     1.0542310000
| 14>  N        2.9312000000    -0.6864210000     1.8396200000
| 15>  C        4.2865760000    -0.6861000000     1.4015420000
| 16>  C        5.1879960000     0.5277010000     1.6950450000
| 17>  N        6.2936890000    -0.4143240000     1.9174210000
| 18>  C        5.3415580000    -1.5050860000     2.1685850000
| 19>  H        2.1526150000    -1.1724220000     0.0092780000
| 20>  H        2.7256690000    -0.4766920000     2.8056340000
| 21>  H        4.3016000000    -0.9325300000     0.3387760000
| 22>  H        4.8488600000     1.0512020000     2.6008850000
| 23>  H        5.3458820000     1.2586490000     0.8982980000
| 24>  H        6.9213930000    -0.1898690000     2.6774300000
| 25>  H        5.0506130000    -1.6195000000     3.2230420000
| 26>  H        5.6283860000    -2.4810320000     1.7694920000
| 27> *
| 28>
| 29>                          ****END OF INPUT****
 Total Charge           Charge          ....    0
 Multiplicity           Mult            ....    1
 Number of Electrons    NEL             ....   54
 Basis Dimension        Dim             ....  138

MULLIKEN ATOMIC CHARGES
-----------------------
   0 O :   -0.220947
   1 C :    0.108269
   2 N :   -0.061664
   3 C :   -0.146595
   4 C :    0.168298
   5 N :   -0.277446
   6 C :    0.182386
   7 H :   -0.024802
   8 H :    0.108411
   9 H :    0.032779
  10 H :   -0.007052
  11 H :    0.026945
  12 H :    0.100546
  13 H :   -0.008924
  14 H :    0.019796
Sum of atomic charges:   -0.0000000

LOEWDIN ATOMIC CHARGES
----------------------
   0 O :   -0.180333
   1 C :    0.048283
   2 N :    0.010261
   3 C :    0.011185
   4 C :    0.021582
   5 N :   -0.110197
   6 C :    0.023743
   7 H :   -0.017030
   8 H :    0.072021
   9 H :    0.033277
  10 H :    0.003933
  11 H :    0.015208
  12 H :    0.050441
  13 H :    0.003603
  14 H :    0.014024

  Mayer bond orders larger than 0.1
B(  0-O ,  1-C ) :   2.0689 B(  1-C ,  2-N ) :   1.1919 B(  1-C ,  7-H ) :   0.9169
B(  2-N ,  3-C ) :   1.0457 B(  2-N ,  8-H ) :   0.9118 B(  3-C ,  4-C ) :   1.0388
B(  3-C ,  6-C ) :   1.0425 B(  3-C ,  9-H ) :   0.8931 B(  4-C ,  5-N ) :   1.0412
B(  4-C , 10-H ) :   0.9147 B(  4-C , 11-H ) :   0.9378 B(  5-N ,  6-C ) :   1.0409
B(  5-N , 12-H ) :   0.9398 B(  6-C , 13-H ) :   0.9148 B(  6-C , 14-H ) :   0.9369

FINAL SINGLE POINT ENERGY      -341.274000984901

DIPOLE MOMENT
-------------
                                X             Y             Z
Electronic contribution:     -5.03395      -0.50403      -0.52749
Nuclear contribution   :      6.30310       0.71161       1.00697
                        -----------------------------------------
Total Dipole Moment    :      1.26915       0.20758       0.47948
                        -----------------------------------------
Magnitude (a.u.)       :      1.37249
Magnitude (Debye)      :      3.48859

                             ****ORCA TERMINATED NORMALLY****
TOTAL RUN TIME: 0 days 0 hours 0 minutes 6 seconds 973 msec
