                         Program Version 3.0.3 - RELEASE   -
|  1> ! RI PBE def2-SVP def2-SVP/J NBO PAL2
|  2> % maxcore 2000
|  3> % output
|  4>     # printlevel mini
|  5>     print[ P_Basis ] 0
|  6>     print[ P_SCFInfo ] 1
|  7>     print[ P_SCFIterInfo ] 1
|  8>     print[ P_OrbEn ] 0
|  9>     print[ P_Cartesian ] 0
| 10> end
| 11> *xyz 0 1
| 12>  O        0.7035120000    -1.1067280000    -0.0158980000
| 13>  C        1.9017220000    -0.9885070000     0.0552520000
| 14>  N        2.7689260000    -1.2623740000    -0.9500360000
| 15>  C        4.1837680000    -1.1201020000    -0.8681070000
| 16>  C        5.0883880000    -2.2819450000    -1.3050930000
| 17>  O        5.8965050000    -1.3927050000    -2.0835780000
| 18>  C        4.9317940000    -0.3418170000    -1.9609570000
| 19>  H        2.4187620000    -0.6370950000     0.9695240000
| 20>  H        2.3546780000    -1.5867340000    -1.8121890000
| 21>  H        4.4301610000    -0.7619060000     0.1324050000
| 22>  H        4.5702420000    -3.0202190000    -1.9310180000
| 23>  H        5.6616340000    -2.7994680000    -0.5318300000
| 24>  H        4.3439250000    -0.2148530000    -2.8794020000
| 25>  H        5.3862730000     0.6130630000    -1.6852620000
| 26> *
| 27>
| 28>                          ****END OF INPUT****
 Total Charge           Charge          ....    0
 Multiplicity           Mult            ....    1
 Number of Electrons    NEL             ....   54
 Basis Dimension        Dim             ....  133

MULLIKEN ATOMIC CHARGES
-----------------------
   0 O :   -0.216083
   1 C :    0.108259
   2 N :   -0.062324
   3 C :   -0.165127
   4 C :    0.255704
   5 O :   -0.357586
   6 C :    0.265563
   7 H :   -0.020627
   8 H :    0.110808
   9 H :    0.028852
  10 H :    0.001340
  11 H :    0.026941
  12 H :   -0.000019
  13 H :    0.024299
Sum of atomic charges:   -0.0000000

LOEWDIN ATOMIC CHARGES
----------------------
   0 O :   -0.174602
   1 C :    0.048844
   2 N :    0.009203
   3 C :   -0.004285
   4 C :    0.078707
   5 O :   -0.177840
   6 C :    0.080468
   7 H :   -0.016120
   8 H :    0.074196
   9 H :    0.032437
  10 H :    0.008609
  11 H :    0.016252
  12 H :    0.008293
  13 H :    0.015838

  Mayer bond orders larger than 0.1
B(  0-O ,  1-C ) :   2.0709 B(  1-C ,  2-N ) :   1.1857 B(  1-C ,  7-H ) :   0.9175
B(  2-N ,  3-C ) :   1.0414 B(  2-N ,  8-H ) :   0.9118 B(  3-C ,  4-C ) :   1.0675
B(  3-C ,  6-C ) :   1.0666 B(  3-C ,  9-H ) :   0.8987 B(  4-C ,  5-O ) :   1.0373
B(  4-C , 10-H ) :   0.9148 B(  4-C , 11-H ) :   0.9389 B(  5-O ,  6-C ) :   1.0339
B(  6-C , 12-H ) :   0.9152 B(  6-C , 13-H ) :   0.9384

FINAL SINGLE POINT ENERGY      -361.111715999356

DIPOLE MOMENT
-------------
                                X             Y             Z
Electronic contribution:     -2.72432      -0.06907       0.43541
Nuclear contribution   :      3.49520       0.09979      -0.52468
                        -----------------------------------------
Total Dipole Moment    :      0.77088       0.03072      -0.08927
                        -----------------------------------------
Magnitude (a.u.)       :      0.77664
Magnitude (Debye)      :      1.97406

                             ****ORCA TERMINATED NORMALLY****
TOTAL RUN TIME: 0 days 0 hours 0 minutes 6 seconds 368 msec
