                         Program Version 3.0.3 - RELEASE   -
|  1> ! RI PBE def2-SVP def2-SVP/J NBO PAL2
|  2> % maxcore 2000
|  3> % output
|  4>     # printlevel mini
|  5>     print[ P_Basis ] 0
|  6>     print[ P_SCFInfo ] 1
|  7>     print[ P_SCFIterInfo ] 1
|  8>     print[ P_OrbEn ] 0
|  9>     print[ P_Cartesian ] 0
| 10> end
| 11> *xyz 0 1
| 12>  O        3.4399770000     1.4773450000     0.7368040000
| 13>  C        3.0922780000     1.1702610000     1.8541200000
| 14>  N        3.1250920000    -0.0762070000     2.3714800000
| 15>  C        3.6242950000    -1.2276490000     1.6539550000
| 16>  C        4.5871080000    -2.0271660000     2.4827620000
| 17>  C        4.0620510000    -3.0191160000     3.4802900000
| 18>  C        4.7368080000    -3.4925000000     2.2288790000
| 19>  H        2.7029420000     1.9101040000     2.5795510000
| 20>  H        2.8188120000    -0.2018090000     3.3217300000
| 21>  H        4.0987390000    -0.8464480000     0.7479420000
| 22>  H        2.7919490000    -1.8700050000     1.3387650000
| 23>  H        5.4872700000    -1.4912450000     2.7665950000
| 24>  H        2.9873490000    -3.1485680000     3.5471150000
| 25>  H        4.5860570000    -3.1330410000     4.4208260000
| 26>  H        4.1166730000    -3.9359180000     1.4586520000
| 27>  H        5.7248090000    -3.9266470000     2.3111340000
| 28> *
| 29>
| 30>                          ****END OF INPUT****
 Total Charge           Charge          ....    0
 Multiplicity           Mult            ....    1
 Number of Electrons    NEL             ....   54
 Basis Dimension        Dim             ....  143

MULLIKEN ATOMIC CHARGES
-----------------------
   0 O :   -0.238436
   1 C :    0.125585
   2 N :   -0.152150
   3 C :    0.230284
   4 C :   -0.192184
   5 C :   -0.041232
   6 C :   -0.034602
   7 H :   -0.024555
   8 H :    0.111544
   9 H :    0.035032
  10 H :    0.002335
  11 H :    0.029862
  12 H :    0.033188
  13 H :    0.037010
  14 H :    0.037840
  15 H :    0.040477
Sum of atomic charges:   -0.0000000

LOEWDIN ATOMIC CHARGES
----------------------
   0 O :   -0.188721
   1 C :    0.044007
   2 N :   -0.000840
   3 C :    0.035469
   4 C :   -0.054094
   5 C :   -0.051341
   6 C :   -0.039811
   7 H :   -0.016718
   8 H :    0.072248
   9 H :    0.035839
  10 H :    0.022353
  11 H :    0.029862
  12 H :    0.024427
  13 H :    0.028636
  14 H :    0.027979
  15 H :    0.030703

  Mayer bond orders larger than 0.1
B(  0-O ,  1-C ) :   2.0136 B(  0-O ,  2-N ) :   0.1068 B(  1-C ,  2-N ) :   1.2278
B(  1-C ,  7-H ) :   0.9218 B(  2-N ,  3-C ) :   0.9725 B(  2-N ,  8-H ) :   0.9292
B(  3-C ,  4-C ) :   1.0868 B(  3-C ,  9-H ) :   0.9170 B(  3-C , 10-H ) :   0.9174
B(  4-C ,  5-C ) :   0.9793 B(  4-C ,  6-C ) :   0.9803 B(  4-C , 11-H ) :   0.9473
B(  5-C ,  6-C ) :   1.0442 B(  5-C , 12-H ) :   0.9499 B(  5-C , 13-H ) :   0.9491
B(  6-C , 14-H ) :   0.9485 B(  6-C , 15-H ) :   0.9477

FINAL SINGLE POINT ENERGY      -325.262102812793

DIPOLE MOMENT
-------------
                                X             Y             Z
Electronic contribution:     -1.25243       6.32585      -2.22181
Nuclear contribution   :      1.10899      -7.27242       3.34924
                        -----------------------------------------
Total Dipole Moment    :     -0.14344      -0.94657       1.12742
                        -----------------------------------------
Magnitude (a.u.)       :      1.47907
Magnitude (Debye)      :      3.75950

                             ****ORCA TERMINATED NORMALLY****
TOTAL RUN TIME: 0 days 0 hours 0 minutes 6 seconds 778 msec
