                         Program Version 3.0.3 - RELEASE   -
|  1> ! RI PBE def2-SVP def2-SVP/J NBO PAL2
|  2> % maxcore 2000
|  3> % output
|  4>     # printlevel mini
|  5>     print[ P_Basis ] 0
|  6>     print[ P_SCFInfo ] 1
|  7>     print[ P_SCFIterInfo ] 1
|  8>     print[ P_OrbEn ] 0
|  9>     print[ P_Cartesian ] 0
| 10> end
| 11> *xyz 0 1
| 12>  O        3.6999260000     0.7053920000     2.9915330000
| 13>  C        3.0336190000    -0.2332650000     3.3556020000
| 14>  N        3.0299960000    -1.4588200000     2.7769420000
| 15>  C        3.7526640000    -1.7534850000     1.5603080000
| 16>  C        5.0890850000    -2.4282750000     1.7690200000
| 17>  C        5.9570200000    -2.0940120000     2.9057160000
| 18>  N        5.2946330000    -3.3997340000     2.8338530000
| 19>  H        2.3479720000    -0.1802670000     4.2225650000
| 20>  H        2.3584030000    -2.1243810000     3.1191260000
| 21>  H        3.9066040000    -0.8103870000     1.0302690000
| 22>  H        3.1206420000    -2.3896000000     0.9334180000
| 23>  H        5.5616520000    -2.7092740000     0.8309620000
| 24>  H        5.5871690000    -1.3660730000     3.6196630000
| 25>  H        7.0346020000    -2.1179980000     2.7894420000
| 26>  H        4.4959340000    -3.3935210000     3.4615800000
| 27> *
| 28>
| 29>                          ****END OF INPUT****
 Total Charge           Charge          ....    0
 Multiplicity           Mult            ....    1
 Number of Electrons    NEL             ....   54
 Basis Dimension        Dim             ....  138

MULLIKEN ATOMIC CHARGES
-----------------------
   0 O :   -0.229551
   1 C :    0.134702
   2 N :   -0.165157
   3 C :    0.168368
   4 C :   -0.113560
   5 C :    0.014676
   6 N :   -0.193368
   7 H :   -0.016239
   8 H :    0.120411
   9 H :    0.044793
  10 H :    0.028216
  11 H :    0.027504
  12 H :    0.050140
  13 H :    0.044410
  14 H :    0.084655
Sum of atomic charges:   -0.0000000

LOEWDIN ATOMIC CHARGES
----------------------
   0 O :   -0.176281
   1 C :    0.048504
   2 N :   -0.003043
   3 C :    0.018601
   4 C :   -0.018630
   5 C :    0.000506
   6 N :   -0.106318
   7 H :   -0.013477
   8 H :    0.072889
   9 H :    0.039255
  10 H :    0.030504
  11 H :    0.025415
  12 H :    0.019528
  13 H :    0.024086
  14 H :    0.038462

  Mayer bond orders larger than 0.1
B(  0-O ,  1-C ) :   2.0088 B(  1-C ,  2-N ) :   1.2048 B(  1-C ,  7-H ) :   0.9237
B(  2-N ,  3-C ) :   0.9881 B(  2-N ,  8-H ) :   0.9276 B(  3-C ,  4-C ) :   1.0323
B(  3-C ,  9-H ) :   0.9135 B(  3-C , 10-H ) :   0.9374 B(  4-C ,  5-C ) :   1.0591
B(  4-C ,  6-N ) :   1.0032 B(  4-C , 11-H ) :   0.9320 B(  5-C ,  6-N ) :   0.9948
B(  5-C , 12-H ) :   0.9410 B(  5-C , 13-H ) :   0.9431 B(  6-N , 14-H ) :   0.9439

FINAL SINGLE POINT ENERGY      -341.269722712395

DIPOLE MOMENT
-------------
                                X             Y             Z
Electronic contribution:     -1.38881       2.23433       0.85948
Nuclear contribution   :      0.44175      -2.87957      -0.84855
                        -----------------------------------------
Total Dipole Moment    :     -0.94705      -0.64524       0.01092
                        -----------------------------------------
Magnitude (a.u.)       :      1.14602
Magnitude (Debye)      :      2.91295

                             ****ORCA TERMINATED NORMALLY****
TOTAL RUN TIME: 0 days 0 hours 0 minutes 6 seconds 582 msec
