                         Program Version 3.0.3 - RELEASE   -
|  1> ! RI PBE def2-SVP def2-SVP/J NBO PAL2
|  2> % maxcore 2000
|  3> % output
|  4>     # printlevel mini
|  5>     print[ P_Basis ] 0
|  6>     print[ P_SCFInfo ] 1
|  7>     print[ P_SCFIterInfo ] 1
|  8>     print[ P_OrbEn ] 0
|  9>     print[ P_Cartesian ] 0
| 10> end
| 11> *xyz 0 1
| 12>  O        3.0984020000     1.3218280000     0.2991380000
| 13>  C        2.4525310000     0.4676090000     0.8609060000
| 14>  N        2.8866080000    -0.7790600000     1.1488440000
| 15>  C        4.2114540000    -1.2421260000     0.8388600000
| 16>  C        4.9291090000    -1.7765520000     2.0492260000
| 17>  C        4.6966310000    -1.2733890000     3.3948280000
| 18>  O        4.1377080000    -2.5130920000     2.9702600000
| 19>  H        1.4123920000     0.6327960000     1.1987710000
| 20>  H        2.2767450000    -1.4028210000     1.6515180000
| 21>  H        4.7616900000    -0.4002730000     0.4133760000
| 22>  H        4.1707890000    -2.0295000000     0.0768900000
| 23>  H        5.8965260000    -2.2274480000     1.8322120000
| 24>  H        3.9793180000    -0.4717230000     3.5464110000
| 25>  H        5.4834870000    -1.3537500000     4.1396400000
| 26> *
| 27>
| 28>                          ****END OF INPUT****
 Total Charge           Charge          ....    0
 Multiplicity           Mult            ....    1
 Number of Electrons    NEL             ....   54
 Basis Dimension        Dim             ....  133

MULLIKEN ATOMIC CHARGES
-----------------------
   0 O :   -0.234412
   1 C :    0.127821
   2 N :   -0.162409
   3 C :    0.197651
   4 C :   -0.046582
   5 C :    0.139166
   6 O :   -0.301818
   7 H :   -0.018585
   8 H :    0.121264
   9 H :    0.045569
  10 H :    0.035711
  11 H :    0.026376
  12 H :    0.029268
  13 H :    0.040980
Sum of atomic charges:   -0.0000000

LOEWDIN ATOMIC CHARGES
----------------------
   0 O :   -0.185309
   1 C :    0.046663
   2 N :    0.005954
   3 C :    0.016992
   4 C :    0.031813
   5 C :    0.056752
   6 O :   -0.162611
   7 H :   -0.013335
   8 H :    0.073369
   9 H :    0.041966
  10 H :    0.032406
  11 H :    0.021135
  12 H :    0.013812
  13 H :    0.020392

  Mayer bond orders larger than 0.1
B(  0-O ,  1-C ) :   2.0164 B(  0-O ,  2-N ) :   0.1034 B(  1-C ,  2-N ) :   1.2184
B(  1-C ,  7-H ) :   0.9234 B(  2-N ,  3-C ) :   0.9865 B(  2-N ,  8-H ) :   0.9208
B(  3-C ,  4-C ) :   1.0368 B(  3-C ,  9-H ) :   0.9109 B(  3-C , 10-H ) :   0.9259
B(  4-C ,  5-C ) :   1.0909 B(  4-C ,  6-O ) :   0.9879 B(  4-C , 11-H ) :   0.9322
B(  5-C ,  6-O ) :   0.9794 B(  5-C , 12-H ) :   0.9297 B(  5-C , 13-H ) :   0.9395

FINAL SINGLE POINT ENERGY      -361.115317992412

DIPOLE MOMENT
-------------
                                X             Y             Z
Electronic contribution:     -1.44813       0.68884      -0.77534
Nuclear contribution   :      1.55519      -1.39199       1.20237
                        -----------------------------------------
Total Dipole Moment    :      0.10706      -0.70316       0.42703
                        -----------------------------------------
Magnitude (a.u.)       :      0.82960
Magnitude (Debye)      :      2.10868

                             ****ORCA TERMINATED NORMALLY****
TOTAL RUN TIME: 0 days 0 hours 0 minutes 6 seconds 469 msec
