                         Program Version 3.0.3 - RELEASE   -
|  1> ! RI PBE def2-SVP def2-SVP/J NBO PAL2
|  2> % maxcore 2000
|  3> % output
|  4>     # printlevel mini
|  5>     print[ P_Basis ] 0
|  6>     print[ P_SCFInfo ] 1
|  7>     print[ P_SCFIterInfo ] 1
|  8>     print[ P_OrbEn ] 0
|  9>     print[ P_Cartesian ] 0
| 10> end
| 11> *xyz 0 1
| 12>  O        0.8479610000    -0.1521890000    -0.1695580000
| 13>  C        2.0507830000    -0.1379810000    -0.1810750000
| 14>  N        2.7966550000     0.8144400000    -0.8167630000
| 15>  C        4.1703600000     0.8422010000    -0.8374470000
| 16>  C        4.9040230000     1.7747520000    -1.4598660000
| 17>  C        6.3152960000     1.7655460000    -1.4560650000
| 18>  C        7.5191620000     1.7859770000    -1.4715130000
| 19>  H        2.6764870000    -0.8965010000     0.3232720000
| 20>  H        2.2749710000     1.5352610000    -1.2960730000
| 21>  H        4.6460030000     0.0307460000    -0.2976740000
| 22>  H        4.4133010000     2.5825710000    -1.9972180000
| 23>  H        8.5831070000     1.7990570000    -1.4811890000
| 24> *
| 25>
| 26>                          ****END OF INPUT****
 Total Charge           Charge          ....    0
 Multiplicity           Mult            ....    1
 Number of Electrons    NEL             ....   50
 Basis Dimension        Dim             ....  123

MULLIKEN ATOMIC CHARGES
-----------------------
   0 O :   -0.192409
   1 C :    0.117918
   2 N :   -0.042050
   3 C :    0.070862
   4 C :   -0.091616
   5 C :    0.361175
   6 C :   -0.402984
   7 H :   -0.003399
   8 H :    0.124665
   9 H :    0.026792
  10 H :    0.026221
  11 H :    0.004824
Sum of atomic charges:   -0.0000000

LOEWDIN ATOMIC CHARGES
----------------------
   0 O :   -0.149618
   1 C :    0.061909
   2 N :    0.051368
   3 C :    0.034776
   4 C :   -0.098732
   5 C :   -0.024773
   6 C :   -0.071759
   7 H :   -0.007852
   8 H :    0.089622
   9 H :    0.037517
  10 H :    0.042219
  11 H :    0.035323

  Mayer bond orders larger than 0.1
B(  0-O ,  1-C ) :   2.0876 B(  1-C ,  2-N ) :   1.1314 B(  1-C ,  7-H ) :   0.9227
B(  2-N ,  3-C ) :   1.1486 B(  2-N ,  8-H ) :   0.9155 B(  3-C ,  4-C ) :   1.6979
B(  3-C ,  6-C ) :   0.1137 B(  3-C ,  9-H ) :   0.9526 B(  4-C ,  5-C ) :   1.0976
B(  4-C , 10-H ) :   0.9359 B(  5-C ,  6-C ) :   2.2721 B(  6-C , 11-H ) :   1.0890

FINAL SINGLE POINT ENERGY      -322.815408238764

DIPOLE MOMENT
-------------
                                X             Y             Z
Electronic contribution:     -2.05025      -0.23172       0.15715
Nuclear contribution   :      2.63291       0.45615      -0.30743
                        -----------------------------------------
Total Dipole Moment    :      0.58266       0.22443      -0.15028
                        -----------------------------------------
Magnitude (a.u.)       :      0.64222
Magnitude (Debye)      :      1.63240

                             ****ORCA TERMINATED NORMALLY****
TOTAL RUN TIME: 0 days 0 hours 0 minutes 5 seconds 860 msec
