                         Program Version 3.0.3 - RELEASE   -
|  1> ! RI PBE def2-SVP def2-SVP/J NBO PAL2
|  2> % maxcore 2000
|  3> % output
|  4>     # printlevel mini
|  5>     print[ P_Basis ] 0
|  6>     print[ P_SCFInfo ] 1
|  7>     print[ P_SCFIterInfo ] 1
|  8>     print[ P_OrbEn ] 0
|  9>     print[ P_Cartesian ] 0
| 10> end
| 11> *xyz 0 1
| 12>  O        2.5189440000     1.7706240000     2.2257570000
| 13>  C        2.0915400000     0.6394080000     2.2537060000
| 14>  N        2.7782940000    -0.4649090000     1.8846970000
| 15>  C        4.1587420000    -0.4249920000     1.4784170000
| 16>  C        5.1067730000    -0.9643130000     2.5534100000
| 17>  C        4.8226480000    -2.3475070000     2.8976860000
| 18>  C        4.5527010000    -3.4886650000     3.1570330000
| 19>  H        1.0632980000     0.3993040000     2.5825950000
| 20>  H        2.3464260000    -1.3631180000     2.0267800000
| 21>  H        4.3979430000     0.6184910000     1.2729940000
| 22>  H        4.2856670000    -0.9982120000     0.5562890000
| 23>  H        5.0286410000    -0.3398000000     3.4486590000
| 24>  H        6.1375860000    -0.8812340000     2.1939840000
| 25>  H        4.3341080000    -4.5020650000     3.3985840000
| 26> *
| 27>
| 28>                          ****END OF INPUT****
 Total Charge           Charge          ....    0
 Multiplicity           Mult            ....    1
 Number of Electrons    NEL             ....   52
 Basis Dimension        Dim             ....  133

MULLIKEN ATOMIC CHARGES
-----------------------
   0 O :   -0.240377
   1 C :    0.133263
   2 N :   -0.147259
   3 C :    0.096670
   4 C :    0.073076
   5 C :    0.284170
   6 C :   -0.471681
   7 H :   -0.019798
   8 H :    0.120807
   9 H :    0.038294
  10 H :    0.029489
  11 H :    0.055402
  12 H :    0.044731
  13 H :    0.003212
Sum of atomic charges:    0.0000000

LOEWDIN ATOMIC CHARGES
----------------------
   0 O :   -0.188799
   1 C :    0.049306
   2 N :    0.002537
   3 C :    0.035963
   4 C :   -0.052540
   5 C :   -0.028980
   6 C :   -0.089567
   7 H :   -0.013847
   8 H :    0.075434
   9 H :    0.035726
  10 H :    0.028072
  11 H :    0.055976
  12 H :    0.054330
  13 H :    0.036388

  Mayer bond orders larger than 0.1
B(  0-O ,  1-C ) :   2.0091 B(  0-O ,  2-N ) :   0.1045 B(  1-C ,  2-N ) :   1.2243
B(  1-C ,  7-H ) :   0.9230 B(  2-N ,  3-C ) :   1.0028 B(  2-N ,  8-H ) :   0.9247
B(  3-C ,  4-C ) :   1.0787 B(  3-C ,  9-H ) :   0.9174 B(  3-C , 10-H ) :   0.9397
B(  4-C ,  5-C ) :   1.0731 B(  4-C , 11-H ) :   0.8974 B(  4-C , 12-H ) :   0.8962
B(  5-C ,  6-C ) :   2.3557 B(  5-C , 13-H ) :  -0.1087 B(  6-C , 13-H ) :   1.1002

FINAL SINGLE POINT ENERGY      -324.022372633306

DIPOLE MOMENT
-------------
                                X             Y             Z
Electronic contribution:     -1.68080       1.05511       0.61610
Nuclear contribution   :      1.78927      -2.23699      -0.75218
                        -----------------------------------------
Total Dipole Moment    :      0.10848      -1.18188      -0.13608
                        -----------------------------------------
Magnitude (a.u.)       :      1.19462
Magnitude (Debye)      :      3.03649

                             ****ORCA TERMINATED NORMALLY****
TOTAL RUN TIME: 0 days 0 hours 0 minutes 6 seconds 683 msec
