                         Program Version 3.0.3 - RELEASE   -
|  1> ! RI PBE def2-SVP def2-SVP/J NBO PAL2
|  2> % maxcore 2000
|  3> % output
|  4>     # printlevel mini
|  5>     print[ P_Basis ] 0
|  6>     print[ P_SCFInfo ] 1
|  7>     print[ P_SCFIterInfo ] 1
|  8>     print[ P_OrbEn ] 0
|  9>     print[ P_Cartesian ] 0
| 10> end
| 11> *xyz 0 1
| 12>  O        0.9535980000    -0.2802760000     0.2253040000
| 13>  C        2.1527790000    -0.2661150000     0.2500610000
| 14>  N        2.8843030000     0.3102480000     1.2599650000
| 15>  C        4.2493100000     0.3341080000     1.3017810000
| 16>  C        4.9764880000     0.8923840000     2.2799900000
| 17>  C        6.3896010000     0.8731510000     2.2462950000
| 18>  N        7.5429700000     0.8669200000     2.2353810000
| 19>  H        2.7915050000    -0.7128890000    -0.5327120000
| 20>  H        2.3485090000     0.7352700000     2.0046840000
| 21>  H        4.7358630000    -0.1465380000     0.4595980000
| 22>  H        4.5093420000     1.3776870000     3.1303330000
| 23> *
| 24>
| 25>                          ****END OF INPUT****
 Total Charge           Charge          ....    0
 Multiplicity           Mult            ....    1
 Number of Electrons    NEL             ....   50
 Basis Dimension        Dim             ....  118

MULLIKEN ATOMIC CHARGES
-----------------------
   0 O :   -0.176166
   1 C :    0.124491
   2 N :   -0.041259
   3 C :    0.081431
   4 C :   -0.122955
   5 C :   -0.127785
   6 N :    0.038652
   7 H :    0.006668
   8 H :    0.131258
   9 H :    0.041536
  10 H :    0.044130
Sum of atomic charges:   -0.0000000

LOEWDIN ATOMIC CHARGES
----------------------
   0 O :   -0.132255
   1 C :    0.070512
   2 N :    0.054714
   3 C :    0.054478
   4 C :   -0.120213
   5 C :   -0.049274
   6 N :   -0.062130
   7 H :   -0.003417
   8 H :    0.093519
   9 H :    0.043965
  10 H :    0.050101

  Mayer bond orders larger than 0.1
B(  0-O ,  1-C ) :   2.1068 B(  1-C ,  2-N ) :   1.1062 B(  1-C ,  7-H ) :   0.9231
B(  2-N ,  3-C ) :   1.1815 B(  2-N ,  8-H ) :   0.9144 B(  3-C ,  4-C ) :   1.7069
B(  3-C ,  9-H ) :   0.9497 B(  4-C ,  5-C ) :   1.1769 B(  4-C , 10-H ) :   0.9324
B(  5-C ,  6-N ) :   2.9487

FINAL SINGLE POINT ENERGY      -338.891920510922

DIPOLE MOMENT
-------------
                                X             Y             Z
Electronic contribution:      0.85556       0.25530       0.44795
Nuclear contribution   :     -1.73811      -0.20936      -0.36683
                        -----------------------------------------
Total Dipole Moment    :     -0.88256       0.04594       0.08112
                        -----------------------------------------
Magnitude (a.u.)       :      0.88747
Magnitude (Debye)      :      2.25576

                             ****ORCA TERMINATED NORMALLY****
TOTAL RUN TIME: 0 days 0 hours 0 minutes 5 seconds 618 msec
