                         Program Version 3.0.3 - RELEASE   -
|  1> ! RI PBE def2-SVP def2-SVP/J NBO PAL2
|  2> % maxcore 2000
|  3> % output
|  4>     # printlevel mini
|  5>     print[ P_Basis ] 0
|  6>     print[ P_SCFInfo ] 1
|  7>     print[ P_SCFIterInfo ] 1
|  8>     print[ P_OrbEn ] 0
|  9>     print[ P_Cartesian ] 0
| 10> end
| 11> *xyz 0 1
| 12>  O        2.8168580000     2.7956130000     1.0261280000
| 13>  C        2.1908500000     2.1424940000     0.2242750000
| 14>  N        2.7523730000     1.3230530000    -0.6931580000
| 15>  C        4.1797070000     1.1411870000    -0.7746410000
| 16>  C        4.8740350000     2.3400850000    -1.4332390000
| 17>  C        6.3025390000     2.1186090000    -1.5736960000
| 18>  N        7.4280420000     1.9113400000    -1.6819070000
| 19>  H        1.0869010000     2.1537860000     0.1679490000
| 20>  H        2.1508020000     0.8331910000    -1.3321830000
| 21>  H        4.3834770000     0.2307640000    -1.3390830000
| 22>  H        4.5778960000     1.0101040000     0.2333210000
| 23>  H        4.7060530000     3.2309680000    -0.8232200000
| 24>  H        4.4503660000     2.5274960000    -2.4238460000
| 25> *
| 26>
| 27>                          ****END OF INPUT****
 Total Charge           Charge          ....    0
 Multiplicity           Mult            ....    1
 Number of Electrons    NEL             ....   52
 Basis Dimension        Dim             ....  128

MULLIKEN ATOMIC CHARGES
-----------------------
   0 O :   -0.230782
   1 C :    0.129671
   2 N :   -0.130463
   3 C :    0.051051
   4 C :    0.081883
   5 C :   -0.287468
   6 N :    0.057166
   7 H :   -0.007820
   8 H :    0.120792
   9 H :    0.040034
  10 H :    0.056941
  11 H :    0.071365
  12 H :    0.047631
Sum of atomic charges:    0.0000000

LOEWDIN ATOMIC CHARGES
----------------------
   0 O :   -0.180066
   1 C :    0.051891
   2 N :    0.000845
   3 C :    0.037698
   4 C :   -0.063335
   5 C :   -0.045481
   6 N :   -0.062286
   7 H :   -0.010369
   8 H :    0.077339
   9 H :    0.034573
  10 H :    0.040016
  11 H :    0.064303
  12 H :    0.054871

  Mayer bond orders larger than 0.1
B(  0-O ,  1-C ) :   2.0065 B(  1-C ,  2-N ) :   1.2115 B(  1-C ,  7-H ) :   0.9273
B(  2-N ,  3-C ) :   1.0272 B(  2-N ,  8-H ) :   0.9296 B(  3-C ,  4-C ) :   1.0822
B(  3-C ,  9-H ) :   0.9463 B(  3-C , 10-H ) :   0.9297 B(  4-C ,  5-C ) :   1.1393
B(  4-C , 11-H ) :   0.8759 B(  4-C , 12-H ) :   0.8866 B(  5-C ,  6-N ) :   3.0506

FINAL SINGLE POINT ENERGY      -340.099029452621

DIPOLE MOMENT
-------------
                                X             Y             Z
Electronic contribution:      2.37395       0.99454       0.57194
Nuclear contribution   :     -4.07329      -1.70187      -1.41924
                        -----------------------------------------
Total Dipole Moment    :     -1.69934      -0.70732      -0.84730
                        -----------------------------------------
Magnitude (a.u.)       :      2.02632
Magnitude (Debye)      :      5.15050

                             ****ORCA TERMINATED NORMALLY****
TOTAL RUN TIME: 0 days 0 hours 0 minutes 6 seconds 585 msec
