                         Program Version 3.0.3 - RELEASE   -
|  1> ! RI PBE def2-SVP def2-SVP/J NBO PAL2
|  2> % maxcore 2000
|  3> % output
|  4>     # printlevel mini
|  5>     print[ P_Basis ] 0
|  6>     print[ P_SCFInfo ] 1
|  7>     print[ P_SCFIterInfo ] 1
|  8>     print[ P_OrbEn ] 0
|  9>     print[ P_Cartesian ] 0
| 10> end
| 11> *xyz 0 1
| 12>  O        2.4836490000     0.7165500000     0.4039120000
| 13>  C        2.0917270000    -0.3270450000    -0.0425410000
| 14>  N        2.9103840000    -1.3453330000    -0.4718140000
| 15>  C        4.2779070000    -1.2743650000    -0.4349230000
| 16>  C        5.1112580000    -2.2414770000    -0.8423360000
| 17>  C        6.5470100000    -2.0399820000    -0.7495950000
| 18>  O        7.3763550000    -2.8488520000    -1.0896980000
| 19>  H        1.0235360000    -0.5802880000    -0.1550390000
| 20>  H        2.4743280000    -2.1809330000    -0.8294630000
| 21>  H        4.6486450000    -0.3363840000    -0.0340280000
| 22>  H        4.7602500000    -3.1863380000    -1.2460680000
| 23>  H        6.8497520000    -1.0556540000    -0.3293180000
| 24> *
| 25>
| 26>                          ****END OF INPUT****
 Total Charge           Charge          ....    0
 Multiplicity           Mult            ....    1
 Number of Electrons    NEL             ....   52
 Basis Dimension        Dim             ....  123

MULLIKEN ATOMIC CHARGES
-----------------------
   0 O :   -0.190764
   1 C :    0.148424
   2 N :   -0.056467
   3 C :    0.060045
   4 C :   -0.031650
   5 C :    0.105095
   6 O :   -0.178278
   7 H :    0.001565
   8 H :    0.127201
   9 H :    0.037368
  10 H :    0.001878
  11 H :   -0.024418
Sum of atomic charges:   -0.0000000

LOEWDIN ATOMIC CHARGES
----------------------
   0 O :   -0.138548
   1 C :    0.070241
   2 N :    0.045706
   3 C :    0.055424
   4 C :   -0.107833
   5 C :    0.060151
   6 O :   -0.127358
   7 H :   -0.005194
   8 H :    0.090238
   9 H :    0.038289
  10 H :    0.031471
  11 H :   -0.012587

  Mayer bond orders larger than 0.1
B(  0-O ,  1-C ) :   2.0670 B(  1-C ,  2-N ) :   1.1121 B(  1-C ,  7-H ) :   0.9306
B(  2-N ,  3-C ) :   1.1606 B(  2-N ,  8-H ) :   0.9202 B(  3-C ,  4-C ) :   1.6199
B(  3-C ,  9-H ) :   0.9530 B(  4-C ,  5-C ) :   1.0737 B(  4-C , 10-H ) :   0.9584
B(  5-C ,  6-O ) :   2.0884 B(  5-C , 11-H ) :   0.9353

FINAL SINGLE POINT ENERGY      -359.944685518624

DIPOLE MOMENT
-------------
                                X             Y             Z
Electronic contribution:      0.49300       0.29482       0.12707
Nuclear contribution   :     -2.04829      -0.67607      -0.29763
                        -----------------------------------------
Total Dipole Moment    :     -1.55529      -0.38125      -0.17056
                        -----------------------------------------
Magnitude (a.u.)       :      1.61040
Magnitude (Debye)      :      4.09330

                             ****ORCA TERMINATED NORMALLY****
TOTAL RUN TIME: 0 days 0 hours 0 minutes 5 seconds 940 msec
