                         Program Version 3.0.3 - RELEASE   -
|  1> ! RI PBE def2-SVP def2-SVP/J NBO PAL2
|  2> % maxcore 2000
|  3> % output
|  4>     # printlevel mini
|  5>     print[ P_Basis ] 0
|  6>     print[ P_SCFInfo ] 1
|  7>     print[ P_SCFIterInfo ] 1
|  8>     print[ P_OrbEn ] 0
|  9>     print[ P_Cartesian ] 0
| 10> end
| 11> *xyz 0 1
| 12>  O        2.3545500000     0.1323540000     0.4588810000
| 13>  C        2.1366530000    -0.9130460000    -0.1007640000
| 14>  N        3.0783160000    -1.7196730000    -0.7275360000
| 15>  C        4.0671630000    -1.1128450000    -1.2664930000
| 16>  N        5.1509530000    -1.7672790000    -1.7475500000
| 17>  C        5.1244920000    -3.0263480000    -2.4248930000
| 18>  C        5.5955430000    -1.7883340000    -3.1167970000
| 19>  H        1.1258630000    -1.3547680000    -0.1304940000
| 20>  H        4.1228970000    -0.0224060000    -1.3347550000
| 21>  H        4.1456050000    -3.4174160000    -2.6817560000
| 22>  H        5.8529580000    -3.7579280000    -2.0944030000
| 23>  H        4.9387320000    -1.3523460000    -3.8630580000
| 24>  H        6.6563850000    -1.6288550000    -3.2738830000
| 25> *
| 26>
| 27>                          ****END OF INPUT****
 Total Charge           Charge          ....    0
 Multiplicity           Mult            ....    1
 Number of Electrons    NEL             ....   52
 Basis Dimension        Dim             ....  128

MULLIKEN ATOMIC CHARGES
-----------------------
   0 O :   -0.198268
   1 C :    0.135987
   2 N :   -0.160742
   3 C :    0.077339
   4 N :   -0.171823
   5 C :    0.046340
   6 C :    0.033960
   7 H :   -0.010393
   8 H :    0.021707
   9 H :    0.055521
  10 H :    0.058845
  11 H :    0.054846
  12 H :    0.056682
Sum of atomic charges:   -0.0000000

LOEWDIN ATOMIC CHARGES
----------------------
   0 O :   -0.144173
   1 C :    0.056818
   2 N :   -0.147025
   3 C :    0.072171
   4 N :   -0.022095
   5 C :    0.036386
   6 C :    0.035981
   7 H :   -0.013941
   8 H :    0.008262
   9 H :    0.027940
  10 H :    0.033185
  11 H :    0.026796
  12 H :    0.029697

  Mayer bond orders larger than 0.1
B(  0-O ,  1-C ) :   2.0591 B(  1-C ,  2-N ) :   1.1473 B(  1-C ,  7-H ) :   0.9319
B(  2-N ,  3-C ) :   1.7220 B(  3-C ,  4-N ) :   1.2138 B(  3-C ,  8-H ) :   0.9346
B(  4-N ,  5-C ) :   0.9535 B(  4-N ,  6-C ) :   0.9429 B(  5-C ,  6-C ) :   1.0655
B(  5-C ,  9-H ) :   0.9436 B(  5-C , 10-H ) :   0.9468 B(  6-C , 11-H ) :   0.9484
B(  6-C , 12-H ) :   0.9489

FINAL SINGLE POINT ENERGY      -340.052182147927

DIPOLE MOMENT
-------------
                                X             Y             Z
Electronic contribution:     -2.38869       2.11859       3.96176
Nuclear contribution   :      3.17120      -2.73865      -5.42240
                        -----------------------------------------
Total Dipole Moment    :      0.78251      -0.62006      -1.46064
                        -----------------------------------------
Magnitude (a.u.)       :      1.76926
Magnitude (Debye)      :      4.49711

                             ****ORCA TERMINATED NORMALLY****
TOTAL RUN TIME: 0 days 0 hours 0 minutes 6 seconds 192 msec
