                         Program Version 3.0.3 - RELEASE   -
|  1> ! RI PBE def2-SVP def2-SVP/J NBO PAL2
|  2> % maxcore 2000
|  3> % output
|  4>     # printlevel mini
|  5>     print[ P_Basis ] 0
|  6>     print[ P_SCFInfo ] 1
|  7>     print[ P_SCFIterInfo ] 1
|  8>     print[ P_OrbEn ] 0
|  9>     print[ P_Cartesian ] 0
| 10> end
| 11> *xyz 0 1
| 12>  O        0.9502870000    -0.0962890000     0.3107980000
| 13>  C        2.1378340000    -0.0421770000     0.1463240000
| 14>  N        3.0371170000    -0.3641470000     1.1466310000
| 15>  C        4.4107410000    -0.3149560000     0.9966360000
| 16>  O        4.9618630000     0.0138440000    -0.0230710000
| 17>  C        5.1290540000    -0.7019280000     2.1959240000
| 18>  C        5.7416170000    -1.0186780000     3.1777770000
| 19>  H        2.6310470000     0.2592020000    -0.7878430000
| 20>  H        2.6479270000    -0.6505920000     2.0337860000
| 21>  H        6.2977130000    -1.2973790000     4.0432400000
| 22> *
| 23>
| 24>                          ****END OF INPUT****
 Total Charge           Charge          ....    0
 Multiplicity           Mult            ....    1
 Number of Electrons    NEL             ....   50
 Basis Dimension        Dim             ....  113

MULLIKEN ATOMIC CHARGES
-----------------------
   0 O :   -0.177825
   1 C :    0.151653
   2 N :   -0.080358
   3 C :    0.102544
   4 O :   -0.148417
   5 C :    0.348230
   6 C :   -0.383575
   7 H :    0.024848
   8 H :    0.133238
   9 H :    0.029663
Sum of atomic charges:   -0.0000000

LOEWDIN ATOMIC CHARGES
----------------------
   0 O :   -0.128527
   1 C :    0.093441
   2 N :    0.023986
   3 C :    0.034487
   4 O :   -0.118817
   5 C :   -0.049304
   6 C :    0.001338
   7 H :    0.003833
   8 H :    0.092394
   9 H :    0.047169

  Mayer bond orders larger than 0.1
B(  0-O ,  1-C ) :   2.1150 B(  1-C ,  2-N ) :   1.0801 B(  1-C ,  7-H ) :   0.9302
B(  2-N ,  3-C ) :   1.1234 B(  2-N ,  8-H ) :   0.9053 B(  3-C ,  4-O ) :   2.1101
B(  3-C ,  5-C ) :   0.8605 B(  5-C ,  6-C ) :   2.3663 B(  6-C ,  9-H ) :   1.0826

FINAL SINGLE POINT ENERGY      -358.701087473817

DIPOLE MOMENT
-------------
                                X             Y             Z
Electronic contribution:      0.01169       0.23565      -0.72962
Nuclear contribution   :      0.45529      -0.61658       1.91195
                        -----------------------------------------
Total Dipole Moment    :      0.46698      -0.38093       1.18233
                        -----------------------------------------
Magnitude (a.u.)       :      1.32705
Magnitude (Debye)      :      3.37310

                             ****ORCA TERMINATED NORMALLY****
TOTAL RUN TIME: 0 days 0 hours 0 minutes 4 seconds 896 msec
