                         Program Version 3.0.3 - RELEASE   -
|  1> ! RI PBE def2-SVP def2-SVP/J NBO PAL2
|  2> % maxcore 2000
|  3> % output
|  4>     # printlevel mini
|  5>     print[ P_Basis ] 0
|  6>     print[ P_SCFInfo ] 1
|  7>     print[ P_SCFIterInfo ] 1
|  8>     print[ P_OrbEn ] 0
|  9>     print[ P_Cartesian ] 0
| 10> end
| 11> *xyz 0 1
| 12>  O        1.9428140000     0.7943600000     2.5139240000
| 13>  C        2.5391010000     0.6534880000     1.4742720000
| 14>  N        3.8913430000     0.6704350000     1.3626770000
| 15>  N        4.5165360000     0.5064070000     0.1553350000
| 16>  C        5.4788810000     1.5248110000    -0.2925880000
| 17>  C        6.3009180000     0.3913600000    -0.9250250000
| 18>  C        5.5326940000    -0.5481840000     0.0170690000
| 19>  H        2.0576790000     0.4944320000     0.4931520000
| 20>  H        4.4389920000     0.8114500000     2.2072170000
| 21>  H        6.0080640000     1.9934060000     0.5492480000
| 22>  H        5.0611890000     2.3021420000    -0.9351670000
| 23>  H        7.3810400000     0.4367820000    -0.8087140000
| 24>  H        6.0471080000     0.2284600000    -1.9713910000
| 25>  H        6.0785640000    -0.7230290000     0.9550160000
| 26>  H        5.1598750000    -1.4994210000    -0.3673370000
| 27> *
| 28>
| 29>                          ****END OF INPUT****
 Total Charge           Charge          ....    0
 Multiplicity           Mult            ....    1
 Number of Electrons    NEL             ....   54
 Basis Dimension        Dim             ....  138

MULLIKEN ATOMIC CHARGES
-----------------------
   0 O :   -0.225464
   1 C :    0.146508
   2 N :   -0.046793
   3 N :   -0.282090
   4 C :    0.146759
   5 C :   -0.104661
   6 C :    0.150544
   7 H :   -0.023137
   8 H :    0.096072
   9 H :   -0.002420
  10 H :    0.032050
  11 H :    0.044037
  12 H :    0.041754
  13 H :   -0.001427
  14 H :    0.028268
Sum of atomic charges:   -0.0000000

LOEWDIN ATOMIC CHARGES
----------------------
   0 O :   -0.180787
   1 C :    0.047173
   2 N :    0.036991
   3 N :   -0.065813
   4 C :    0.031278
   5 C :   -0.044357
   6 C :    0.031909
   7 H :   -0.015888
   8 H :    0.050541
   9 H :    0.006529
  10 H :    0.017519
  11 H :    0.027615
  12 H :    0.033864
  13 H :    0.006350
  14 H :    0.017078

  Mayer bond orders larger than 0.1
B(  0-O ,  1-C ) :   2.0610 B(  0-O ,  2-N ) :   0.1036 B(  1-C ,  2-N ) :   1.1775
B(  1-C ,  7-H ) :   0.9211 B(  2-N ,  3-N ) :   0.9741 B(  2-N ,  8-H ) :   0.9058
B(  3-N ,  4-C ) :   0.9747 B(  3-N ,  6-C ) :   0.9764 B(  4-C ,  5-C ) :   1.0922
B(  4-C ,  9-H ) :   0.9242 B(  4-C , 10-H ) :   0.9471 B(  5-C ,  6-C ) :   1.0885
B(  5-C , 11-H ) :   0.9521 B(  5-C , 12-H ) :   0.9277 B(  6-C , 13-H ) :   0.9258
B(  6-C , 14-H ) :   0.9470

FINAL SINGLE POINT ENERGY      -341.251286567948

DIPOLE MOMENT
-------------
                                X             Y             Z
Electronic contribution:     -5.84042       0.43660       3.92303
Nuclear contribution   :      7.36202      -0.51652      -4.72137
                        -----------------------------------------
Total Dipole Moment    :      1.52160      -0.07991      -0.79834
                        -----------------------------------------
Magnitude (a.u.)       :      1.72018
Magnitude (Debye)      :      4.37234

                             ****ORCA TERMINATED NORMALLY****
TOTAL RUN TIME: 0 days 0 hours 0 minutes 6 seconds 766 msec
