                         Program Version 3.0.3 - RELEASE   -
|  1> ! RI PBE def2-SVP def2-SVP/J NBO PAL2
|  2> % maxcore 2000
|  3> % output
|  4>     # printlevel mini
|  5>     print[ P_Basis ] 0
|  6>     print[ P_SCFInfo ] 1
|  7>     print[ P_SCFIterInfo ] 1
|  8>     print[ P_OrbEn ] 0
|  9>     print[ P_Cartesian ] 0
| 10> end
| 11> *xyz 0 1
| 12>  O        3.4035120000    -1.8626270000    -1.9501210000
| 13>  C        2.4609290000    -1.3380470000    -2.4973810000
| 14>  N        2.3233700000    -0.0074320000    -2.6833710000
| 15>  N        3.2321200000     0.9143690000    -2.1713900000
| 16>  C        4.3667800000     1.1114030000    -3.0341300000
| 17>  C        4.2588670000     2.1828720000    -4.0694540000
| 18>  C        5.1091550000     2.3932000000    -2.8526460000
| 19>  H        1.5977570000    -1.9016630000    -2.8991300000
| 20>  H        1.4530320000     0.3659940000    -3.0233790000
| 21>  H        3.5459540000     0.5532050000    -1.2757910000
| 22>  H        4.9433810000     0.2244590000    -3.2854890000
| 23>  H        3.3234510000     2.7261360000    -4.1171350000
| 24>  H        4.7461500000     2.0199620000    -5.0221490000
| 25>  H        4.7322770000     3.0716820000    -2.0978700000
| 26>  H        6.1860750000     2.3749950000    -2.9584440000
| 27> *
| 28>
| 29>                          ****END OF INPUT****
 Total Charge           Charge          ....    0
 Multiplicity           Mult            ....    1
 Number of Electrons    NEL             ....   54
 Basis Dimension        Dim             ....  138

MULLIKEN ATOMIC CHARGES
-----------------------
   0 O :   -0.236063
   1 C :    0.126843
   2 N :   -0.073342
   3 N :   -0.105131
   4 C :   -0.042466
   5 C :   -0.012545
   6 C :   -0.055558
   7 H :   -0.024684
   8 H :    0.121973
   9 H :    0.114337
  10 H :    0.034131
  11 H :    0.025574
  12 H :    0.037496
  13 H :    0.041689
  14 H :    0.047746
Sum of atomic charges:    0.0000000

LOEWDIN ATOMIC CHARGES
----------------------
   0 O :   -0.189859
   1 C :    0.034521
   2 N :    0.043497
   3 N :   -0.025070
   4 C :   -0.010519
   5 C :   -0.049332
   6 C :   -0.049430
   7 H :   -0.014636
   8 H :    0.070603
   9 H :    0.058138
  10 H :    0.014701
  11 H :    0.026609
  12 H :    0.028476
  13 H :    0.030964
  14 H :    0.031337

  Mayer bond orders larger than 0.1
B(  0-O ,  1-C ) :   2.0182 B(  0-O ,  2-N ) :   0.1018 B(  1-C ,  2-N ) :   1.2177
B(  1-C ,  7-H ) :   0.9150 B(  2-N ,  3-N ) :   1.0185 B(  2-N ,  8-H ) :   0.9319
B(  3-N ,  4-C ) :   1.0565 B(  3-N ,  9-H ) :   0.9389 B(  4-C ,  5-C ) :   1.0011
B(  4-C ,  6-C ) :   0.9966 B(  4-C , 10-H ) :   0.9375 B(  5-C ,  6-C ) :   1.0541
B(  5-C , 11-H ) :   0.9349 B(  5-C , 12-H ) :   0.9519 B(  6-C , 13-H ) :   0.9438
B(  6-C , 14-H ) :   0.9474

FINAL SINGLE POINT ENERGY      -341.250292283192

DIPOLE MOMENT
-------------
                                X             Y             Z
Electronic contribution:     -2.39869      -4.76646       2.20604
Nuclear contribution   :      1.82500       5.46996      -2.62435
                        -----------------------------------------
Total Dipole Moment    :     -0.57369       0.70350      -0.41831
                        -----------------------------------------
Magnitude (a.u.)       :      0.99950
Magnitude (Debye)      :      2.54054

                             ****ORCA TERMINATED NORMALLY****
TOTAL RUN TIME: 0 days 0 hours 0 minutes 6 seconds 473 msec
