                         Program Version 3.0.3 - RELEASE   -
|  1> ! RI PBE def2-SVP def2-SVP/J NBO PAL2
|  2> % maxcore 2000
|  3> % output
|  4>     # printlevel mini
|  5>     print[ P_Basis ] 0
|  6>     print[ P_SCFInfo ] 1
|  7>     print[ P_SCFIterInfo ] 1
|  8>     print[ P_OrbEn ] 0
|  9>     print[ P_Cartesian ] 0
| 10> end
| 11> *xyz 0 1
| 12>  O        1.0009360000    -0.4917330000     2.9263120000
| 13>  C        1.9990970000    -0.5699700000     2.2599980000
| 14>  N        3.2531270000    -0.3668690000     2.7695750000
| 15>  N        4.3258080000    -0.4676490000     1.9809080000
| 16>  C        5.4715620000    -0.2675670000     2.5114510000
| 17>  C        6.6571660000    -0.3554050000     1.7451010000
| 18>  C        7.7035500000    -0.4133660000     1.1558010000
| 19>  H        2.0312260000    -0.8089700000     1.1848080000
| 20>  H        3.3356950000    -0.1396820000     3.7573390000
| 21>  H        5.5812040000    -0.0218750000     3.5728830000
| 22>  H        8.6196290000    -0.4690330000     0.6161240000
| 23> *
| 24>
| 25>                          ****END OF INPUT****
 Total Charge           Charge          ....    0
 Multiplicity           Mult            ....    1
 Number of Electrons    NEL             ....   50
 Basis Dimension        Dim             ....  118

MULLIKEN ATOMIC CHARGES
-----------------------
   0 O :   -0.197351
   1 C :    0.157686
   2 N :   -0.030733
   3 N :   -0.027392
   4 C :   -0.084868
   5 C :    0.403632
   6 C :   -0.376163
   7 H :    0.003856
   8 H :    0.109722
   9 H :    0.023271
  10 H :    0.018339
Sum of atomic charges:   -0.0000000

LOEWDIN ATOMIC CHARGES
----------------------
   0 O :   -0.147923
   1 C :    0.063329
   2 N :    0.072866
   3 N :   -0.001049
   4 C :   -0.043843
   5 C :   -0.028520
   6 C :   -0.032901
   7 H :   -0.003364
   8 H :    0.063605
   9 H :    0.016676
  10 H :    0.041124

  Mayer bond orders larger than 0.1
B(  0-O ,  1-C ) :   2.0806 B(  1-C ,  2-N ) :   1.1145 B(  1-C ,  7-H ) :   0.9270
B(  2-N ,  3-N ) :   1.0680 B(  2-N ,  8-H ) :   0.8967 B(  3-N ,  4-C ) :   1.7603
B(  4-C ,  5-C ) :   1.0506 B(  4-C ,  9-H ) :   0.9242 B(  5-C ,  6-C ) :   2.2935
B(  6-C , 10-H ) :   1.0799

FINAL SINGLE POINT ENERGY      -338.812350150396

DIPOLE MOMENT
-------------
                                X             Y             Z
Electronic contribution:     -1.41002      -0.07815       0.08741
Nuclear contribution   :      2.52360       0.22232       0.19284
                        -----------------------------------------
Total Dipole Moment    :      1.11358       0.14417       0.28024
                        -----------------------------------------
Magnitude (a.u.)       :      1.15732
Magnitude (Debye)      :      2.94167

                             ****ORCA TERMINATED NORMALLY****
TOTAL RUN TIME: 0 days 0 hours 0 minutes 5 seconds 210 msec
