                         Program Version 3.0.3 - RELEASE   -
|  1> ! RI PBE def2-SVP def2-SVP/J NBO PAL2
|  2> % maxcore 2000
|  3> % output
|  4>     # printlevel mini
|  5>     print[ P_Basis ] 0
|  6>     print[ P_SCFInfo ] 1
|  7>     print[ P_SCFIterInfo ] 1
|  8>     print[ P_OrbEn ] 0
|  9>     print[ P_Cartesian ] 0
| 10> end
| 11> *xyz 0 1
| 12>  O        4.3707000000    -2.9691160000     1.5626680000
| 13>  C        3.2889870000    -3.1275240000     1.0483920000
| 14>  N        2.9565150000    -2.6903360000    -0.1894090000
| 15>  N        3.8079240000    -1.9045920000    -0.9547880000
| 16>  C        4.8101230000    -2.7237610000    -1.6482090000
| 17>  C        5.7567950000    -1.8742570000    -2.3490660000
| 18>  C        6.5462520000    -1.1681700000    -2.9117970000
| 19>  H        2.4474830000    -3.6495930000     1.5415040000
| 20>  H        1.9943050000    -2.7143740000    -0.4853150000
| 21>  H        4.2890700000    -1.2677180000    -0.3263980000
| 22>  H        4.2852600000    -3.3595300000    -2.3673360000
| 23>  H        5.3531020000    -3.3787740000    -0.9548040000
| 24>  H        7.2470750000    -0.5438550000    -3.4138420000
| 25> *
| 26>
| 27>                          ****END OF INPUT****
 Total Charge           Charge          ....    0
 Multiplicity           Mult            ....    1
 Number of Electrons    NEL             ....   52
 Basis Dimension        Dim             ....  128

MULLIKEN ATOMIC CHARGES
-----------------------
   0 O :   -0.228775
   1 C :    0.128565
   2 N :   -0.081552
   3 N :   -0.170755
   4 C :    0.224235
   5 C :    0.287209
   6 C :   -0.466013
   7 H :   -0.020033
   8 H :    0.126637
   9 H :    0.116708
  10 H :    0.030166
  11 H :    0.048188
  12 H :    0.005422
Sum of atomic charges:   -0.0000000

LOEWDIN ATOMIC CHARGES
----------------------
   0 O :   -0.182535
   1 C :    0.037640
   2 N :    0.038163
   3 N :   -0.035833
   4 C :    0.006470
   5 C :   -0.029191
   6 C :   -0.066212
   7 H :   -0.012721
   8 H :    0.072450
   9 H :    0.057123
  10 H :    0.041965
  11 H :    0.035629
  12 H :    0.037053

  Mayer bond orders larger than 0.1
B(  0-O ,  1-C ) :   2.0216 B(  1-C ,  2-N ) :   1.2061 B(  1-C ,  7-H ) :   0.9158
B(  2-N ,  3-N ) :   1.0289 B(  2-N ,  8-H ) :   0.9328 B(  3-N ,  4-C ) :   0.9754
B(  3-N ,  9-H ) :   0.9417 B(  4-C ,  5-C ) :   1.0685 B(  4-C , 10-H ) :   0.8936
B(  4-C , 11-H ) :   0.8965 B(  5-C ,  6-C ) :   2.3726 B(  5-C , 12-H ) :  -0.1041
B(  6-C , 12-H ) :   1.0951

FINAL SINGLE POINT ENERGY      -340.003644216465

DIPOLE MOMENT
-------------
                                X             Y             Z
Electronic contribution:      0.14936       0.48378       1.20524
Nuclear contribution   :     -0.97088      -0.58922      -1.72888
                        -----------------------------------------
Total Dipole Moment    :     -0.82152      -0.10545      -0.52364
                        -----------------------------------------
Magnitude (a.u.)       :      0.97990
Magnitude (Debye)      :      2.49072

                             ****ORCA TERMINATED NORMALLY****
TOTAL RUN TIME: 0 days 0 hours 0 minutes 5 seconds 732 msec
