                         Program Version 3.0.3 - RELEASE   -
|  1> ! RI PBE def2-SVP def2-SVP/J NBO PAL2
|  2> % maxcore 2000
|  3> % output
|  4>     # printlevel mini
|  5>     print[ P_Basis ] 0
|  6>     print[ P_SCFInfo ] 1
|  7>     print[ P_SCFIterInfo ] 1
|  8>     print[ P_OrbEn ] 0
|  9>     print[ P_Cartesian ] 0
| 10> end
| 11> *xyz 0 1
| 12>  O        4.6760320000     1.8603320000     1.3631870000
| 13>  C        4.3484730000     1.7070030000     0.2140980000
| 14>  N        4.7331360000     0.6422660000    -0.5425850000
| 15>  O        4.0260380000     0.3890560000    -1.7036510000
| 16>  C        4.8479220000     0.5316460000    -2.8333120000
| 17>  C        4.1312100000     0.9004500000    -4.0773260000
| 18>  C        5.0504110000     1.8894070000    -3.4103090000
| 19>  H        3.7359620000     2.4215860000    -0.3641380000
| 20>  H        5.0390140000    -0.1954430000    -0.0639650000
| 21>  H        5.6597930000    -0.1884460000    -2.8773700000
| 22>  H        3.0674720000     1.0788090000    -3.9836870000
| 23>  H        4.4377450000     0.4320130000    -5.0034490000
| 24>  H        4.5860550000     2.7193850000    -2.8928760000
| 25>  H        6.0053480000     2.1128570000    -3.8687240000
| 26> *
| 27>
| 28>                          ****END OF INPUT****
 Total Charge           Charge          ....    0
 Multiplicity           Mult            ....    1
 Number of Electrons    NEL             ....   54
 Basis Dimension        Dim             ....  133

MULLIKEN ATOMIC CHARGES
-----------------------
   0 O :   -0.212770
   1 C :    0.137174
   2 N :    0.023148
   3 O :   -0.257599
   4 C :    0.066069
   5 C :   -0.047873
   6 C :   -0.038807
   7 H :   -0.011724
   8 H :    0.128470
   9 H :    0.024578
  10 H :    0.058597
  11 H :    0.045534
  12 H :    0.041025
  13 H :    0.044179
Sum of atomic charges:   -0.0000000

LOEWDIN ATOMIC CHARGES
----------------------
   0 O :   -0.165363
   1 C :    0.041823
   2 N :    0.078897
   3 O :   -0.082087
   4 C :    0.026598
   5 C :   -0.045313
   6 C :   -0.054390
   7 H :   -0.014823
   8 H :    0.066810
   9 H :    0.012841
  10 H :    0.038258
  11 H :    0.032989
  12 H :    0.031748
  13 H :    0.032011

  Mayer bond orders larger than 0.1
B(  0-O ,  1-C ) :   2.0627 B(  0-O ,  2-N ) :   0.1130 B(  1-C ,  2-N ) :   1.1659
B(  1-C ,  7-H ) :   0.9203 B(  2-N ,  3-O ) :   0.9182 B(  2-N ,  8-H ) :   0.9196
B(  3-O ,  4-C ) :   1.0142 B(  4-C ,  5-C ) :   0.9951 B(  4-C ,  6-C ) :   1.0107
B(  4-C ,  9-H ) :   0.9439 B(  5-C ,  6-C ) :   1.0327 B(  5-C , 10-H ) :   0.9463
B(  5-C , 11-H ) :   0.9470 B(  6-C , 12-H ) :   0.9376 B(  6-C , 13-H ) :   0.9467

FINAL SINGLE POINT ENERGY      -361.058588562111

DIPOLE MOMENT
-------------
                                X             Y             Z
Electronic contribution:     -0.51572      -0.96298       6.60835
Nuclear contribution   :      0.69814       0.46619      -7.85083
                        -----------------------------------------
Total Dipole Moment    :      0.18242      -0.49679      -1.24248
                        -----------------------------------------
Magnitude (a.u.)       :      1.35050
Magnitude (Debye)      :      3.43269

                             ****ORCA TERMINATED NORMALLY****
TOTAL RUN TIME: 0 days 0 hours 0 minutes 6 seconds 297 msec
