                         Program Version 3.0.3 - RELEASE   -
|  1> ! RI PBE def2-SVP def2-SVP/J NBO PAL2
|  2> % maxcore 2000
|  3> % output
|  4>     # printlevel mini
|  5>     print[ P_Basis ] 0
|  6>     print[ P_SCFInfo ] 1
|  7>     print[ P_SCFIterInfo ] 1
|  8>     print[ P_OrbEn ] 0
|  9>     print[ P_Cartesian ] 0
| 10> end
| 11> *xyz 0 1
| 12>  O        0.8818970000     1.4626400000    -0.3765100000
| 13>  C        2.0693350000     1.5702520000    -0.2141840000
| 14>  N        2.6995650000     1.2608960000     0.9574070000
| 15>  O        4.0647290000     1.0714690000     0.9038240000
| 16>  C        4.7182040000     2.0726760000     1.6885850000
| 17>  C        6.1481220000     1.8473780000     1.6265170000
| 18>  C        7.3340970000     1.6784580000     1.5880060000
| 19>  H        2.7756180000     1.9632440000    -0.9670910000
| 20>  H        2.2286490000     0.6279540000     1.5926300000
| 21>  H        4.3692630000     2.0156450000     2.7264470000
| 22>  H        4.4688900000     3.0667490000     1.3010060000
| 23>  H        8.3871310000     1.5254290000     1.5508720000
| 24> *
| 25>
| 26>                          ****END OF INPUT****
 Total Charge           Charge          ....    0
 Multiplicity           Mult            ....    1
 Number of Electrons    NEL             ....   52
 Basis Dimension        Dim             ....  123

MULLIKEN ATOMIC CHARGES
-----------------------
   0 O :   -0.206073
   1 C :    0.140250
   2 N :    0.010610
   3 O :   -0.292199
   4 C :    0.268294
   5 C :    0.288364
   6 C :   -0.421386
   7 H :   -0.007915
   8 H :    0.130865
   9 H :    0.036828
  10 H :    0.038364
  11 H :    0.013998
Sum of atomic charges:   -0.0000000

LOEWDIN ATOMIC CHARGES
----------------------
   0 O :   -0.159130
   1 C :    0.044605
   2 N :    0.071852
   3 O :   -0.098258
   4 C :    0.055558
   5 C :   -0.036138
   6 C :   -0.041598
   7 H :   -0.011112
   8 H :    0.067701
   9 H :    0.032716
  10 H :    0.033572
  11 H :    0.040232

  Mayer bond orders larger than 0.1
B(  0-O ,  1-C ) :   2.0734 B(  0-O ,  2-N ) :   0.1079 B(  1-C ,  2-N ) :   1.1539
B(  1-C ,  7-H ) :   0.9214 B(  2-N ,  3-O ) :   0.9335 B(  2-N ,  8-H ) :   0.9185
B(  3-O ,  4-C ) :   0.9492 B(  4-C ,  5-C ) :   1.0253 B(  4-C ,  9-H ) :   0.9155
B(  4-C , 10-H ) :   0.9160 B(  5-C ,  6-C ) :   2.4102 B(  6-C , 11-H ) :   1.0886

FINAL SINGLE POINT ENERGY      -359.811558546783

DIPOLE MOMENT
-------------
                                X             Y             Z
Electronic contribution:     -1.70181      -1.20036      -1.01026
Nuclear contribution   :      2.68492       1.34980       1.80709
                        -----------------------------------------
Total Dipole Moment    :      0.98311       0.14944       0.79684
                        -----------------------------------------
Magnitude (a.u.)       :      1.27428
Magnitude (Debye)      :      3.23896

                             ****ORCA TERMINATED NORMALLY****
TOTAL RUN TIME: 0 days 0 hours 0 minutes 5 seconds 654 msec
