                         Program Version 3.0.3 - RELEASE   -
|  1> ! RI PBE def2-SVP def2-SVP/J NBO PAL2
|  2> % maxcore 2000
|  3> % output
|  4>     # printlevel mini
|  5>     print[ P_Basis ] 0
|  6>     print[ P_SCFInfo ] 1
|  7>     print[ P_SCFIterInfo ] 1
|  8>     print[ P_OrbEn ] 0
|  9>     print[ P_Cartesian ] 0
| 10> end
| 11> *xyz 0 1
| 12>  O        1.5374670000     0.6293830000    -0.1730600000
| 13>  C        2.8153030000     0.4498300000     0.2168860000
| 14>  O        3.2525450000     0.9980140000     1.1830770000
| 15>  C        3.5931020000    -0.4775360000    -0.6760890000
| 16>  C        4.7624720000    -1.2879250000    -0.1188030000
| 17>  C        4.1558310000    -2.4607700000    -0.9057370000
| 18>  N        2.8747870000    -1.7160210000    -1.1007330000
| 19>  H        1.3660540000     0.1050180000    -0.9675560000
| 20>  H        3.8770170000     0.0930070000    -1.5703950000
| 21>  H        4.6833040000    -1.4098230000     0.9625210000
| 22>  H        5.7702250000    -0.9612450000    -0.3732150000
| 23>  H        4.0534130000    -3.4174950000    -0.3923590000
| 24>  H        4.6396560000    -2.6294030000    -1.8705360000
| 25>  H        2.2443350000    -1.9916420000    -0.3521900000
| 26> *
| 27>
| 28>                          ****END OF INPUT****
 Total Charge           Charge          ....    0
 Multiplicity           Mult            ....    1
 Number of Electrons    NEL             ....   54
 Basis Dimension        Dim             ....  133

MULLIKEN ATOMIC CHARGES
-----------------------
   0 O :   -0.125791
   1 C :    0.100937
   2 O :   -0.149044
   3 C :   -0.095886
   4 C :    0.030897
   5 C :    0.086031
   6 N :   -0.269508
   7 H :    0.165066
   8 H :    0.051928
   9 H :    0.023171
  10 H :    0.025222
  11 H :    0.024542
  12 H :    0.028197
  13 H :    0.104238
Sum of atomic charges:   -0.0000000

LOEWDIN ATOMIC CHARGES
----------------------
   0 O :   -0.007819
   1 C :    0.021974
   2 O :   -0.123014
   3 C :   -0.030996
   4 C :   -0.035095
   5 C :    0.034309
   6 N :   -0.127927
   7 H :    0.084406
   8 H :    0.039000
   9 H :    0.032362
  10 H :    0.024318
  11 H :    0.017651
  12 H :    0.022149
  13 H :    0.048682

  Mayer bond orders larger than 0.1
B(  0-O ,  1-C ) :   1.2298 B(  0-O ,  7-H ) :   0.9476 B(  1-C ,  2-O ) :   2.1807
B(  1-C ,  3-C ) :   0.9301 B(  3-C ,  4-C ) :   1.0851 B(  3-C ,  6-N ) :   1.0492
B(  3-C ,  8-H ) :   0.8691 B(  4-C ,  5-C ) :   1.1186 B(  4-C ,  9-H ) :   0.9015
B(  4-C , 10-H ) :   0.9337 B(  5-C ,  6-N ) :   1.0473 B(  5-C , 11-H ) :   0.9465
B(  5-C , 12-H ) :   0.9383 B(  6-N , 13-H ) :   0.9313

FINAL SINGLE POINT ENERGY      -361.118677021425

DIPOLE MOMENT
-------------
                                X             Y             Z
Electronic contribution:     -3.48326       5.07518       2.12924
Nuclear contribution   :      3.66567      -6.06214      -2.85696
                        -----------------------------------------
Total Dipole Moment    :      0.18241      -0.98696      -0.72771
                        -----------------------------------------
Magnitude (a.u.)       :      1.23973
Magnitude (Debye)      :      3.15115

                             ****ORCA TERMINATED NORMALLY****
TOTAL RUN TIME: 0 days 0 hours 0 minutes 6 seconds 725 msec
