                         Program Version 3.0.3 - RELEASE   -
|  1> ! RI PBE def2-SVP def2-SVP/J NBO PAL2
|  2> % maxcore 2000
|  3> % output
|  4>     # printlevel mini
|  5>     print[ P_Basis ] 0
|  6>     print[ P_SCFInfo ] 1
|  7>     print[ P_SCFIterInfo ] 1
|  8>     print[ P_OrbEn ] 0
|  9>     print[ P_Cartesian ] 0
| 10> end
| 11> *xyz 0 1
| 12>  O        2.0783860000     2.0295300000     0.7951860000
| 13>  C        1.9339740000     1.0099790000     1.4028820000
| 14>  O        2.9007890000     0.1548390000     1.7341040000
| 15>  C        4.2077730000     0.4962620000     1.2921460000
| 16>  C        4.9961030000     1.5334600000     2.0977540000
| 17>  N        6.1608090000     0.6351940000     2.0026850000
| 18>  C        5.2792080000    -0.5075610000     1.7070780000
| 19>  H        0.9718150000     0.6322970000     1.7785440000
| 20>  H        4.1877260000     0.7159130000     0.2251820000
| 21>  H        4.5781790000     1.6327730000     3.1079720000
| 22>  H        5.1305280000     2.5223580000     1.6573200000
| 23>  H        6.7193550000     0.5504690000     2.8412250000
| 24>  H        4.9496490000    -1.0711340000     2.5890750000
| 25>  H        5.6541090000    -1.2002890000     0.9504580000
| 26> *
| 27>
| 28>                          ****END OF INPUT****
 Total Charge           Charge          ....    0
 Multiplicity           Mult            ....    1
 Number of Electrons    NEL             ....   54
 Basis Dimension        Dim             ....  133

MULLIKEN ATOMIC CHARGES
-----------------------
   0 O :   -0.206968
   1 C :    0.219185
   2 O :   -0.223726
   3 C :   -0.036083
   4 C :    0.169453
   5 N :   -0.285198
   6 C :    0.153062
   7 H :    0.005579
   8 H :    0.036311
   9 H :    0.001394
  10 H :    0.028674
  11 H :    0.102069
  12 H :    0.011886
  13 H :    0.024362
Sum of atomic charges:    0.0000000

LOEWDIN ATOMIC CHARGES
----------------------
   0 O :   -0.139601
   1 C :    0.073612
   2 O :   -0.051570
   3 C :    0.054791
   4 C :    0.024262
   5 N :   -0.112199
   6 C :    0.023855
   7 H :   -0.004914
   8 H :    0.025312
   9 H :    0.010039
  10 H :    0.018592
  11 H :    0.050253
  12 H :    0.011975
  13 H :    0.015593

  Mayer bond orders larger than 0.1
B(  0-O ,  1-C ) :   2.0433 B(  0-O ,  2-O ) :   0.1054 B(  1-C ,  2-O ) :   1.1857
B(  1-C ,  7-H ) :   0.9377 B(  2-O ,  3-C ) :   0.9472 B(  3-C ,  4-C ) :   1.0810
B(  3-C ,  6-C ) :   1.0604 B(  3-C ,  8-H ) :   0.9046 B(  4-C ,  5-N ) :   1.0433
B(  4-C ,  9-H ) :   0.9117 B(  4-C , 10-H ) :   0.9385 B(  5-N ,  6-C ) :   1.0362
B(  5-N , 11-H ) :   0.9410 B(  6-C , 12-H ) :   0.9141 B(  6-C , 13-H ) :   0.9378

FINAL SINGLE POINT ENERGY      -361.108722822786

DIPOLE MOMENT
-------------
                                X             Y             Z
Electronic contribution:     -4.28872       0.91878      -1.31887
Nuclear contribution   :      4.47604      -1.51382       1.94727
                        -----------------------------------------
Total Dipole Moment    :      0.18732      -0.59504       0.62840
                        -----------------------------------------
Magnitude (a.u.)       :      0.88547
Magnitude (Debye)      :      2.25068

                             ****ORCA TERMINATED NORMALLY****
TOTAL RUN TIME: 0 days 0 hours 0 minutes 6 seconds 631 msec
