                         Program Version 3.0.3 - RELEASE   -
|  1> ! RI PBE def2-SVP def2-SVP/J NBO PAL2
|  2> % maxcore 2000
|  3> % output
|  4>     # printlevel mini
|  5>     print[ P_Basis ] 0
|  6>     print[ P_SCFInfo ] 1
|  7>     print[ P_SCFIterInfo ] 1
|  8>     print[ P_OrbEn ] 0
|  9>     print[ P_Cartesian ] 0
| 10> end
| 11> *xyz 0 1
| 12>  O        2.7977320000     1.0796280000    -0.2449910000
| 13>  C        2.0896750000     0.0682440000     0.2856290000
| 14>  O        0.9061040000    -0.0517820000     0.1102970000
| 15>  C        2.9346010000    -0.8602480000     1.0965310000
| 16>  C        2.4142340000    -1.2193910000     2.5045360000
| 17>  N        2.7617940000    -2.6253790000     2.2506420000
| 18>  C        2.7844860000    -2.3681360000     0.8031210000
| 19>  H        2.1717830000     1.6212660000    -0.7470430000
| 20>  H        3.9735910000    -0.5374740000     1.1046800000
| 21>  H        1.3385270000    -1.0240470000     2.5800320000
| 22>  H        2.9336010000    -0.7624940000     3.3499780000
| 23>  H        2.0761610000    -3.3024640000     2.5585960000
| 24>  H        1.8365910000    -2.5693600000     0.2912560000
| 25>  H        3.6052200000    -2.8462830000     0.2636370000
| 26> *
| 27>
| 28>                          ****END OF INPUT****
 Total Charge           Charge          ....    0
 Multiplicity           Mult            ....    1
 Number of Electrons    NEL             ....   54
 Basis Dimension        Dim             ....  133

MULLIKEN ATOMIC CHARGES
-----------------------
   0 O :   -0.128173
   1 C :    0.095657
   2 O :   -0.181342
   3 C :   -0.231423
   4 C :    0.187464
   5 N :   -0.282581
   6 C :    0.182915
   7 H :    0.165268
   8 H :    0.026771
   9 H :    0.013358
  10 H :    0.018236
  11 H :    0.097431
  12 H :    0.014674
  13 H :    0.021746
Sum of atomic charges:   -0.0000000

LOEWDIN ATOMIC CHARGES
----------------------
   0 O :   -0.009730
   1 C :    0.037175
   2 O :   -0.158220
   3 C :   -0.068871
   4 C :    0.047840
   5 N :   -0.114054
   6 C :    0.047203
   7 H :    0.084815
   8 H :    0.035931
   9 H :    0.010887
  10 H :    0.013448
  11 H :    0.048526
  12 H :    0.011008
  13 H :    0.014040

  Mayer bond orders larger than 0.1
B(  0-O ,  1-C ) :   1.2641 B(  0-O ,  7-H ) :   0.9473 B(  1-C ,  2-O ) :   2.1116
B(  1-C ,  3-C ) :   0.9282 B(  3-C ,  4-C ) :   1.0622 B(  3-C ,  6-C ) :   1.0563
B(  3-C ,  8-H ) :   0.8943 B(  4-C ,  5-N ) :   1.0530 B(  4-C ,  9-H ) :   0.9238
B(  4-C , 10-H ) :   0.9363 B(  5-N ,  6-C ) :   1.0512 B(  5-N , 11-H ) :   0.9445
B(  6-C , 12-H ) :   0.9252 B(  6-C , 13-H ) :   0.9381

FINAL SINGLE POINT ENERGY      -361.128503052755

DIPOLE MOMENT
-------------
                                X             Y             Z
Electronic contribution:     -1.21146       3.63865      -2.72033
Nuclear contribution   :      1.30198      -3.45500       2.61521
                        -----------------------------------------
Total Dipole Moment    :      0.09052       0.18365      -0.10511
                        -----------------------------------------
Magnitude (a.u.)       :      0.23015
Magnitude (Debye)      :      0.58500

                             ****ORCA TERMINATED NORMALLY****
TOTAL RUN TIME: 0 days 0 hours 0 minutes 6 seconds 790 msec
