                         Program Version 3.0.3 - RELEASE   -
|  1> ! RI PBE def2-SVP def2-SVP/J NBO PAL2
|  2> % maxcore 2000
|  3> % output
|  4>     # printlevel mini
|  5>     print[ P_Basis ] 0
|  6>     print[ P_SCFInfo ] 1
|  7>     print[ P_SCFIterInfo ] 1
|  8>     print[ P_OrbEn ] 0
|  9>     print[ P_Cartesian ] 0
| 10> end
| 11> *xyz 0 1
| 12>  O        2.1833130000     1.9268840000    -0.1845770000
| 13>  C        2.7669690000     2.9620500000    -0.0633330000
| 14>  O        3.9620440000     3.1208450000     0.5047300000
| 15>  C        4.5757700000     1.9306050000     1.0106090000
| 16>  C        5.9143870000     2.2772830000     1.5889870000
| 17>  C        6.7407760000     3.3706010000     1.0513090000
| 18>  N        6.1104050000     3.4882880000     2.3681320000
| 19>  H        2.3975540000     3.9389680000    -0.4076140000
| 20>  H        4.6750450000     1.2020750000     0.2014570000
| 21>  H        3.9213200000     1.4943790000     1.7710050000
| 22>  H        6.4182320000     1.4053810000     1.9993150000
| 23>  H        6.3309970000     3.9555360000     0.2351740000
| 24>  H        7.8216700000     3.2860520000     1.0648230000
| 25>  H        5.2877090000     4.0783630000     2.2904920000
| 26> *
| 27>
| 28>                          ****END OF INPUT****
 Total Charge           Charge          ....    0
 Multiplicity           Mult            ....    1
 Number of Electrons    NEL             ....   54
 Basis Dimension        Dim             ....  133

MULLIKEN ATOMIC CHARGES
-----------------------
   0 O :   -0.200227
   1 C :    0.213335
   2 O :   -0.261299
   3 C :    0.232590
   4 C :   -0.128986
   5 C :    0.030476
   6 N :   -0.195882
   7 H :    0.009214
   8 H :    0.042358
   9 H :    0.038587
  10 H :    0.033113
  11 H :    0.034832
  12 H :    0.044250
  13 H :    0.107639
Sum of atomic charges:   -0.0000000

LOEWDIN ATOMIC CHARGES
----------------------
   0 O :   -0.133754
   1 C :    0.074255
   2 O :   -0.061273
   3 C :    0.070974
   4 C :   -0.024750
   5 C :    0.000965
   6 N :   -0.099687
   7 H :   -0.003159
   8 H :    0.030493
   9 H :    0.028403
  10 H :    0.029640
  11 H :    0.015219
  12 H :    0.023095
  13 H :    0.049579

  Mayer bond orders larger than 0.1
B(  0-O ,  1-C ) :   2.0574 B(  0-O ,  2-O ) :   0.1055 B(  1-C ,  2-O ) :   1.1808
B(  1-C ,  7-H ) :   0.9384 B(  2-O ,  3-C ) :   0.9124 B(  3-C ,  4-C ) :   1.0458
B(  3-C ,  8-H ) :   0.9366 B(  3-C ,  9-H ) :   0.9352 B(  4-C ,  5-C ) :   1.0525
B(  4-C ,  6-N ) :   1.0013 B(  4-C , 10-H ) :   0.9213 B(  5-C ,  6-N ) :   1.0005
B(  5-C , 11-H ) :   0.9435 B(  5-C , 12-H ) :   0.9428 B(  6-N , 13-H ) :   0.9477

FINAL SINGLE POINT ENERGY      -361.105185363388

DIPOLE MOMENT
-------------
                                X             Y             Z
Electronic contribution:     -4.38832      -0.03845      -1.23201
Nuclear contribution   :      4.57832       0.25158       0.94472
                        -----------------------------------------
Total Dipole Moment    :      0.19000       0.21314      -0.28729
                        -----------------------------------------
Magnitude (a.u.)       :      0.40505
Magnitude (Debye)      :      1.02955

                             ****ORCA TERMINATED NORMALLY****
TOTAL RUN TIME: 0 days 0 hours 0 minutes 6 seconds 580 msec
