                         Program Version 3.0.3 - RELEASE   -
|  1> ! RI PBE def2-SVP def2-SVP/J NBO PAL2
|  2> % maxcore 2000
|  3> % output
|  4>     # printlevel mini
|  5>     print[ P_Basis ] 0
|  6>     print[ P_SCFInfo ] 1
|  7>     print[ P_SCFIterInfo ] 1
|  8>     print[ P_OrbEn ] 0
|  9>     print[ P_Cartesian ] 0
| 10> end
| 11> *xyz 0 1
| 12>  O        1.0486440000     0.1409280000    -0.3117340000
| 13>  C        2.3631090000     0.3880420000    -0.4543660000
| 14>  O        2.8002330000     1.4917310000    -0.6257360000
| 15>  C        3.1681980000    -0.8808440000    -0.3907280000
| 16>  C        4.6463750000    -0.6376030000    -0.3309830000
| 17>  C        5.3415460000    -0.6117880000     0.9669820000
| 18>  N        5.5377520000    -1.7280990000     0.0423390000
| 19>  H        0.5973610000     0.9937290000    -0.3862230000
| 20>  H        2.9045780000    -1.4694780000    -1.2783100000
| 21>  H        2.8255230000    -1.4652680000     0.4694330000
| 22>  H        5.0324490000    -0.0089860000    -1.1267320000
| 23>  H        4.7453540000    -0.7748340000     1.8601900000
| 24>  H        6.2056470000     0.0274660000     1.1068910000
| 25>  H        5.0022410000    -2.5344060000     0.3480870000
| 26> *
| 27>
| 28>                          ****END OF INPUT****
 Total Charge           Charge          ....    0
 Multiplicity           Mult            ....    1
 Number of Electrons    NEL             ....   54
 Basis Dimension        Dim             ....  133

MULLIKEN ATOMIC CHARGES
-----------------------
   0 O :   -0.140760
   1 C :    0.055837
   2 O :   -0.174404
   3 C :    0.063489
   4 C :   -0.115169
   5 C :    0.038280
   6 N :   -0.184789
   7 H :    0.167219
   8 H :    0.057994
   9 H :    0.021319
  10 H :    0.038151
  11 H :    0.027071
  12 H :    0.042749
  13 H :    0.103012
Sum of atomic charges:   -0.0000000

LOEWDIN ATOMIC CHARGES
----------------------
   0 O :   -0.019115
   1 C :    0.043436
   2 O :   -0.147954
   3 C :   -0.075468
   4 C :   -0.003531
   5 C :    0.004393
   6 N :   -0.100175
   7 H :    0.086317
   8 H :    0.053813
   9 H :    0.042095
  10 H :    0.027624
  11 H :    0.013669
  12 H :    0.024645
  13 H :    0.050250

  Mayer bond orders larger than 0.1
B(  0-O ,  1-C ) :   1.2493 B(  0-O ,  7-H ) :   0.9477 B(  1-C ,  2-O ) :   2.1257
B(  1-C ,  3-C ) :   0.9495 B(  3-C ,  4-C ) :   1.0586 B(  3-C ,  8-H ) :   0.9011
B(  3-C ,  9-H ) :   0.9010 B(  4-C ,  5-C ) :   1.0533 B(  4-C ,  6-N ) :   0.9916
B(  4-C , 10-H ) :   0.9312 B(  5-C ,  6-N ) :   1.0103 B(  5-C , 11-H ) :   0.9422
B(  5-C , 12-H ) :   0.9441 B(  6-N , 13-H ) :   0.9475

FINAL SINGLE POINT ENERGY      -361.125668454849

DIPOLE MOMENT
-------------
                                X             Y             Z
Electronic contribution:     -3.53498       2.95123      -1.63319
Nuclear contribution   :      2.65537      -3.30794       1.95761
                        -----------------------------------------
Total Dipole Moment    :     -0.87961      -0.35671       0.32442
                        -----------------------------------------
Magnitude (a.u.)       :      1.00309
Magnitude (Debye)      :      2.54966

                             ****ORCA TERMINATED NORMALLY****
TOTAL RUN TIME: 0 days 0 hours 0 minutes 6 seconds 192 msec
