                         Program Version 3.0.3 - RELEASE   -
|  1> ! RI PBE def2-SVP def2-SVP/J NBO PAL2
|  2> % maxcore 2000
|  3> % output
|  4>     # printlevel mini
|  5>     print[ P_Basis ] 0
|  6>     print[ P_SCFInfo ] 1
|  7>     print[ P_SCFIterInfo ] 1
|  8>     print[ P_OrbEn ] 0
|  9>     print[ P_Cartesian ] 0
| 10> end
| 11> *xyz 0 1
| 12>  O        1.7037880000    -1.1429450000     1.3291050000
| 13>  C        1.4959230000    -0.1245520000     0.4948500000
| 14>  O        0.4213270000     0.3712260000     0.3223340000
| 15>  C        2.7457660000     0.3234340000    -0.2490570000
| 16>  N        3.9367260000    -0.1974540000     0.3879980000
| 17>  C        5.2149230000     0.2557280000    -0.1197320000
| 18>  C        4.7187050000     0.7291120000     1.1898120000
| 19>  H        2.6618460000    -1.3359300000     1.2828870000
| 20>  H        2.7231640000     1.4166860000    -0.3351670000
| 21>  H        2.6727160000    -0.0880850000    -1.2610490000
| 22>  H        5.1996800000     0.9636620000    -0.9433350000
| 23>  H        5.9948840000    -0.4953020000    -0.1701270000
| 24>  H        4.3645940000     1.7540130000     1.2526930000
| 25>  H        5.1317480000     0.3253160000     2.1067990000
| 26> *
| 27>
| 28>                          ****END OF INPUT****
 Total Charge           Charge          ....    0
 Multiplicity           Mult            ....    1
 Number of Electrons    NEL             ....   54
 Basis Dimension        Dim             ....  133

MULLIKEN ATOMIC CHARGES
-----------------------
   0 O :   -0.120533
   1 C :    0.054931
   2 O :   -0.172193
   3 C :    0.079161
   4 N :   -0.348516
   5 C :    0.032352
   6 C :    0.038293
   7 H :    0.159173
   8 H :    0.031164
   9 H :    0.055005
  10 H :    0.041164
  11 H :    0.051977
  12 H :    0.047421
  13 H :    0.050601
Sum of atomic charges:    0.0000000

LOEWDIN ATOMIC CHARGES
----------------------
   0 O :   -0.007108
   1 C :    0.018001
   2 O :   -0.143126
   3 C :   -0.022550
   4 N :   -0.114083
   5 C :    0.014996
   6 C :    0.015465
   7 H :    0.063027
   8 H :    0.027224
   9 H :    0.047769
  10 H :    0.022980
  11 H :    0.027973
  12 H :    0.022483
  13 H :    0.026950

  Mayer bond orders larger than 0.1
B(  0-O ,  1-C ) :   1.2763 B(  0-O ,  2-O ) :   0.1042 B(  0-O ,  7-H ) :   0.9105
B(  1-C ,  2-O ) :   2.1435 B(  1-C ,  3-C ) :   0.9450 B(  3-C ,  4-N ) :   0.9878
B(  3-C ,  8-H ) :   0.9150 B(  3-C ,  9-H ) :   0.9159 B(  4-N ,  5-C ) :   0.9679
B(  4-N ,  6-C ) :   0.9286 B(  4-N ,  7-H ) :   0.1203 B(  5-C ,  6-C ) :   1.0941
B(  5-C , 10-H ) :   0.9382 B(  5-C , 11-H ) :   0.9503 B(  6-C , 12-H ) :   0.9370
B(  6-C , 13-H ) :   0.9525

FINAL SINGLE POINT ENERGY      -361.119676074875

DIPOLE MOMENT
-------------
                                X             Y             Z
Electronic contribution:     -6.26252      -2.02593       1.10038
Nuclear contribution   :      8.19273       2.26202      -1.39978
                        -----------------------------------------
Total Dipole Moment    :      1.93021       0.23609      -0.29941
                        -----------------------------------------
Magnitude (a.u.)       :      1.96751
Magnitude (Debye)      :      5.00102

                             ****ORCA TERMINATED NORMALLY****
TOTAL RUN TIME: 0 days 0 hours 0 minutes 6 seconds 433 msec
