                         Program Version 3.0.3 - RELEASE   -
|  1> ! RI PBE def2-SVP def2-SVP/J NBO PAL2
|  2> % maxcore 2000
|  3> % output
|  4>     # printlevel mini
|  5>     print[ P_Basis ] 0
|  6>     print[ P_SCFInfo ] 1
|  7>     print[ P_SCFIterInfo ] 1
|  8>     print[ P_OrbEn ] 0
|  9>     print[ P_Cartesian ] 0
| 10> end
| 11> *xyz 0 1
| 12>  O        2.2215330000     0.2467640000    -0.4321170000
| 13>  C        2.0133210000    -0.5835370000     0.3855480000
| 14>  O        2.9305590000    -1.2688160000     1.1195530000
| 15>  N        4.2451810000    -0.9159550000     0.8371110000
| 16>  C        5.0246940000    -1.6057870000     1.5720520000
| 17>  C        6.4257300000    -1.4305010000     1.4721930000
| 18>  C        7.6223590000    -1.3327210000     1.4393350000
| 19>  H        1.0270090000    -0.9546790000     0.7020820000
| 20>  H        4.6389740000    -2.3361840000     2.2844370000
| 21>  H        8.6815300000    -1.2312850000     1.3939250000
| 22> *
| 23>
| 24>                          ****END OF INPUT****
 Total Charge           Charge          ....    0
 Multiplicity           Mult            ....    1
 Number of Electrons    NEL             ....   50
 Basis Dimension        Dim             ....  113

MULLIKEN ATOMIC CHARGES
-----------------------
   0 O :   -0.149121
   1 C :    0.219187
   2 O :   -0.201495
   3 N :    0.031152
   4 C :   -0.038543
   5 C :    0.406571
   6 C :   -0.354037
   7 H :    0.013393
   8 H :    0.048673
   9 H :    0.024220
Sum of atomic charges:    0.0000000

LOEWDIN ATOMIC CHARGES
----------------------
   0 O :   -0.093836
   1 C :    0.068131
   2 O :   -0.028957
   3 N :    0.039209
   4 C :   -0.018167
   5 C :   -0.025227
   6 C :   -0.010191
   7 H :   -0.003522
   8 H :    0.028590
   9 H :    0.043969

  Mayer bond orders larger than 0.1
B(  0-O ,  1-C ) :   2.1558 B(  1-C ,  2-O ) :   1.0730 B(  1-C ,  7-H ) :   0.9306
B(  2-O ,  3-N ) :   0.9234 B(  3-N ,  4-C ) :   1.8204 B(  3-N ,  6-C ) :   0.1115
B(  4-C ,  5-C ) :   1.0065 B(  4-C ,  8-H ) :   0.9403 B(  5-C ,  6-C ) :   2.3139
B(  6-C ,  9-H ) :   1.0799

FINAL SINGLE POINT ENERGY      -358.620421138752

DIPOLE MOMENT
-------------
                                X             Y             Z
Electronic contribution:     -1.19770       0.72119      -0.78622
Nuclear contribution   :      1.53558      -1.52608       1.61093
                        -----------------------------------------
Total Dipole Moment    :      0.33788      -0.80489       0.82472
                        -----------------------------------------
Magnitude (a.u.)       :      1.20090
Magnitude (Debye)      :      3.05245

                             ****ORCA TERMINATED NORMALLY****
TOTAL RUN TIME: 0 days 0 hours 0 minutes 4 seconds 804 msec
