                         Program Version 3.0.3 - RELEASE   -
|  1> ! RI PBE def2-SVP def2-SVP/J NBO PAL2
|  2> % maxcore 2000
|  3> % output
|  4>     # printlevel mini
|  5>     print[ P_Basis ] 0
|  6>     print[ P_SCFInfo ] 1
|  7>     print[ P_SCFIterInfo ] 1
|  8>     print[ P_OrbEn ] 0
|  9>     print[ P_Cartesian ] 0
| 10> end
| 11> *xyz 0 1
| 12>  O        1.2334800000    -0.3429430000    -0.3626630000
| 13>  N        2.4963500000    -0.3076530000     0.1731280000
| 14>  C        3.3555890000    -1.3972290000     0.1486150000
| 15>  C        4.6141540000    -0.9902730000     0.3295010000
| 16>  C        4.6198610000     0.5120090000     0.4311190000
| 17>  C        3.1783150000     0.8754800000     0.1488910000
| 18>  N        2.5485130000     1.9419420000    -0.1524300000
| 19>  H        1.0993740000     0.6062460000    -0.5731250000
| 20>  H        2.9446780000    -2.3914350000     0.0599610000
| 21>  H        5.4723630000    -1.6263600000     0.4750580000
| 22>  H        5.2905920000     1.0016070000    -0.2794840000
| 23>  H        4.9034440000     0.8551630000     1.4327210000
| 24>  H        3.1445790000     2.7597260000    -0.1725820000
| 25> *
| 26>
| 27>                          ****END OF INPUT****
 Total Charge           Charge          ....    0
 Multiplicity           Mult            ....    1
 Number of Electrons    NEL             ....   52
 Basis Dimension        Dim             ....  128

MULLIKEN ATOMIC CHARGES
-----------------------
   0 O :   -0.174270
   1 N :   -0.066657
   2 C :    0.152184
   3 C :   -0.151033
   4 C :    0.144634
   5 C :   -0.120377
   6 N :   -0.160183
   7 H :    0.165193
   8 H :    0.011293
   9 H :    0.002273
  10 H :    0.046066
  11 H :    0.055505
  12 H :    0.095372
Sum of atomic charges:    0.0000000

LOEWDIN ATOMIC CHARGES
----------------------
   0 O :   -0.063371
   1 N :    0.089753
   2 C :    0.017058
   3 C :   -0.092661
   4 C :   -0.045127
   5 C :   -0.004955
   6 N :   -0.182521
   7 H :    0.063129
   8 H :    0.032061
   9 H :    0.026407
  10 H :    0.049065
  11 H :    0.055942
  12 H :    0.055220

  Mayer bond orders larger than 0.1
B(  0-O ,  1-N ) :   0.9904 B(  0-O ,  7-H ) :   0.9184 B(  1-N ,  2-C ) :   1.0669
B(  1-N ,  5-C ) :   1.1533 B(  2-C ,  3-C ) :   1.7211 B(  2-C ,  8-H ) :   0.9908
B(  3-C ,  4-C ) :   1.0462 B(  3-C ,  9-H ) :   0.9864 B(  4-C ,  5-C ) :   1.0027
B(  4-C , 10-H ) :   0.9030 B(  4-C , 11-H ) :   0.8840 B(  5-C ,  6-N ) :   1.8580
B(  6-N ,  7-H ) :   0.1252 B(  6-N , 12-H ) :   0.9297

FINAL SINGLE POINT ENERGY      -340.030702140008

DIPOLE MOMENT
-------------
                                X             Y             Z
Electronic contribution:     -3.09325      -0.68836      -0.31025
Nuclear contribution   :      4.03301       0.75348       0.40943
                        -----------------------------------------
Total Dipole Moment    :      0.93976       0.06512       0.09918
                        -----------------------------------------
Magnitude (a.u.)       :      0.94722
Magnitude (Debye)      :      2.40764

                             ****ORCA TERMINATED NORMALLY****
TOTAL RUN TIME: 0 days 0 hours 0 minutes 6 seconds 245 msec
