                         Program Version 3.0.3 - RELEASE   -
|  1> ! RI PBE def2-SVP def2-SVP/J NBO PAL2
|  2> % maxcore 2000
|  3> % output
|  4>     # printlevel mini
|  5>     print[ P_Basis ] 0
|  6>     print[ P_SCFInfo ] 1
|  7>     print[ P_SCFIterInfo ] 1
|  8>     print[ P_OrbEn ] 0
|  9>     print[ P_Cartesian ] 0
| 10> end
| 11> *xyz 0 1
| 12>  O        1.2976680000    -0.2430860000     0.2566780000
| 13>  N        2.6801780000    -0.2372760000     0.2983770000
| 14>  C        3.3767000000    -1.3390330000    -0.3133690000
| 15>  C        4.6936110000    -0.7094700000    -0.6402330000
| 16>  C        4.6370640000     0.6083930000    -0.4466730000
| 17>  C        3.2793100000     0.9588760000    -0.0067240000
| 18>  N        2.5978290000     2.0373970000     0.0537390000
| 19>  H        1.1087490000     0.7152490000     0.1631550000
| 20>  H        2.8551220000    -1.6767150000    -1.2195210000
| 21>  H        3.4656630000    -2.1951760000     0.3633010000
| 22>  H        5.5531350000    -1.2805810000    -0.9642710000
| 23>  H        5.4246950000     1.3308150000    -0.6075350000
| 24>  H        3.1397760000     2.8546980000    -0.1964260000
| 25> *
| 26>
| 27>                          ****END OF INPUT****
 Total Charge           Charge          ....    0
 Multiplicity           Mult            ....    1
 Number of Electrons    NEL             ....   52
 Basis Dimension        Dim             ....  128

MULLIKEN ATOMIC CHARGES
-----------------------
   0 O :   -0.187866
   1 N :   -0.150539
   2 C :    0.256339
   3 C :   -0.110391
   4 C :    0.013065
   5 C :    0.012900
   6 N :   -0.170420
   7 H :    0.158589
   8 H :    0.037974
   9 H :    0.047395
  10 H :    0.012573
  11 H :   -0.012999
  12 H :    0.093380
Sum of atomic charges:   -0.0000000

LOEWDIN ATOMIC CHARGES
----------------------
   0 O :   -0.073733
   1 N :    0.051733
   2 C :    0.032550
   3 C :   -0.009834
   4 C :   -0.043646
   5 C :   -0.019597
   6 N :   -0.185912
   7 H :    0.055788
   8 H :    0.038777
   9 H :    0.038092
  10 H :    0.030394
  11 H :    0.031911
  12 H :    0.053477

  Mayer bond orders larger than 0.1
B(  0-O ,  1-N ) :   0.9957 B(  0-O ,  7-H ) :   0.9194 B(  1-N ,  2-C ) :   0.9943
B(  1-N ,  5-C ) :   1.1338 B(  2-C ,  3-C ) :   1.0250 B(  2-C ,  8-H ) :   0.8913
B(  2-C ,  9-H ) :   0.9219 B(  3-C ,  4-C ) :   1.7573 B(  3-C , 10-H ) :   0.9808
B(  4-C ,  5-C ) :   1.0095 B(  4-C , 11-H ) :   1.0109 B(  5-C ,  6-N ) :   1.7921
B(  6-N ,  7-H ) :   0.1304 B(  6-N , 12-H ) :   0.9259

FINAL SINGLE POINT ENERGY      -340.030260178849

DIPOLE MOMENT
-------------
                                X             Y             Z
Electronic contribution:     -1.42500       0.83442       1.13393
Nuclear contribution   :      2.48532      -1.11124      -1.70729
                        -----------------------------------------
Total Dipole Moment    :      1.06031      -0.27682      -0.57336
                        -----------------------------------------
Magnitude (a.u.)       :      1.23678
Magnitude (Debye)      :      3.14366

                             ****ORCA TERMINATED NORMALLY****
TOTAL RUN TIME: 0 days 0 hours 0 minutes 6 seconds 290 msec
