                         Program Version 3.0.3 - RELEASE   -
|  1> ! RI PBE def2-SVP def2-SVP/J NBO PAL2
|  2> % maxcore 2000
|  3> % output
|  4>     # printlevel mini
|  5>     print[ P_Basis ] 0
|  6>     print[ P_SCFInfo ] 1
|  7>     print[ P_SCFIterInfo ] 1
|  8>     print[ P_OrbEn ] 0
|  9>     print[ P_Cartesian ] 0
| 10> end
| 11> *xyz 0 1
| 12>  O        1.2270150000    -0.4515790000    -0.3047120000
| 13>  N        2.5522990000    -0.3403170000    -0.0004690000
| 14>  C        3.4271590000    -1.4118060000     0.1073090000
| 15>  C        4.6434820000    -0.9557810000     0.4156840000
| 16>  C        4.5792630000     0.5406970000     0.5223220000
| 17>  C        3.1277220000     0.8637990000     0.2256700000
| 18>  O        2.5155140000     1.9150590000     0.1751880000
| 19>  H        0.9491150000     0.4840660000    -0.2890200000
| 20>  H        3.0650690000    -2.4154160000    -0.0543190000
| 21>  H        5.5254990000    -1.5572110000     0.5633360000
| 22>  H        5.2237190000     1.0548270000    -0.1969550000
| 23>  H        4.8444450000     0.9176820000     1.5144560000
| 24> *
| 25>
| 26>                          ****END OF INPUT****
 Total Charge           Charge          ....    0
 Multiplicity           Mult            ....    1
 Number of Electrons    NEL             ....   52
 Basis Dimension        Dim             ....  123

MULLIKEN ATOMIC CHARGES
-----------------------
   0 O :   -0.147841
   1 N :   -0.093109
   2 C :    0.155186
   3 C :   -0.133631
   4 C :    0.065133
   5 C :    0.044335
   6 O :   -0.215726
   7 H :    0.170061
   8 H :    0.015905
   9 H :    0.008208
  10 H :    0.067708
  11 H :    0.063771
Sum of atomic charges:    0.0000000

LOEWDIN ATOMIC CHARGES
----------------------
   0 O :   -0.046467
   1 N :    0.090459
   2 C :    0.017440
   3 C :   -0.080674
   4 C :   -0.050462
   5 C :    0.001817
   6 O :   -0.194539
   7 H :    0.075735
   8 H :    0.034015
   9 H :    0.029439
  10 H :    0.062115
  11 H :    0.061122

  Mayer bond orders larger than 0.1
B(  0-O ,  1-N ) :   0.9946 B(  0-O ,  7-H ) :   0.9359 B(  1-N ,  2-C ) :   1.0467
B(  1-N ,  5-C ) :   1.1669 B(  2-C ,  3-C ) :   1.7115 B(  2-C ,  8-H ) :   0.9893
B(  3-C ,  4-C ) :   1.0528 B(  3-C ,  9-H ) :   0.9917 B(  4-C ,  5-C ) :   0.9854
B(  4-C , 10-H ) :   0.8898 B(  4-C , 11-H ) :   0.8917 B(  5-C ,  6-O ) :   2.0397

FINAL SINGLE POINT ENERGY      -359.894679306710

DIPOLE MOMENT
-------------
                                X             Y             Z
Electronic contribution:     -3.34162       0.97444      -0.66272
Nuclear contribution   :      3.92324      -1.66733       0.73767
                        -----------------------------------------
Total Dipole Moment    :      0.58161      -0.69289       0.07494
                        -----------------------------------------
Magnitude (a.u.)       :      0.90774
Magnitude (Debye)      :      2.30729

                             ****ORCA TERMINATED NORMALLY****
TOTAL RUN TIME: 0 days 0 hours 0 minutes 5 seconds 894 msec
