                         Program Version 3.0.3 - RELEASE   -
|  1> ! RI PBE def2-SVP def2-SVP/J NBO PAL2
|  2> % maxcore 2000
|  3> % output
|  4>     # printlevel mini
|  5>     print[ P_Basis ] 0
|  6>     print[ P_SCFInfo ] 1
|  7>     print[ P_SCFIterInfo ] 1
|  8>     print[ P_OrbEn ] 0
|  9>     print[ P_Cartesian ] 0
| 10> end
| 11> *xyz 0 1
| 12>  O        1.2825130000    -0.3979660000     0.3032300000
| 13>  N        2.5137470000    -0.3185040000    -0.3064140000
| 14>  C        3.4354970000    -1.4089020000    -0.2037620000
| 15>  C        4.7296230000    -0.7235000000    -0.5176530000
| 16>  C        4.5497950000     0.5935720000    -0.6148840000
| 17>  C        3.1290570000     0.8971010000    -0.3421320000
| 18>  O        2.5451540000     1.9436630000    -0.1274150000
| 19>  H        1.0826560000     0.5466040000     0.4531670000
| 20>  H        3.2045520000    -2.2153390000    -0.9080870000
| 21>  H        3.4337650000    -1.8310990000     0.8092050000
| 22>  H        5.6513200000    -1.2691030000    -0.6665640000
| 23>  H        5.2865320000     1.3544720000    -0.8252910000
| 24> *
| 25>
| 26>                          ****END OF INPUT****
 Total Charge           Charge          ....    0
 Multiplicity           Mult            ....    1
 Number of Electrons    NEL             ....   52
 Basis Dimension        Dim             ....  123

MULLIKEN ATOMIC CHARGES
-----------------------
   0 O :   -0.171111
   1 N :   -0.160507
   2 C :    0.249314
   3 C :   -0.101915
   4 C :   -0.032482
   5 C :    0.142977
   6 O :   -0.220414
   7 H :    0.164094
   8 H :    0.055613
   9 H :    0.048496
  10 H :    0.018755
  11 H :    0.007180
Sum of atomic charges:   -0.0000000

LOEWDIN ATOMIC CHARGES
----------------------
   0 O :   -0.060794
   1 N :    0.054073
   2 C :    0.035100
   3 C :   -0.008541
   4 C :   -0.042941
   5 C :   -0.009802
   6 O :   -0.192329
   7 H :    0.066934
   8 H :    0.043055
   9 H :    0.045027
  10 H :    0.032248
  11 H :    0.037969

  Mayer bond orders larger than 0.1
B(  0-O ,  1-N ) :   0.9949 B(  0-O ,  7-H ) :   0.9325 B(  1-N ,  2-C ) :   0.9931
B(  1-N ,  5-C ) :   1.1366 B(  2-C ,  3-C ) :   1.0162 B(  2-C ,  8-H ) :   0.9164
B(  2-C ,  9-H ) :   0.8963 B(  3-C ,  4-C ) :   1.7596 B(  3-C , 10-H ) :   0.9856
B(  4-C ,  5-C ) :   0.9754 B(  4-C , 11-H ) :   1.0070 B(  5-C ,  6-O ) :   2.0173
B(  6-O ,  7-H ) :   0.1027

FINAL SINGLE POINT ENERGY      -359.894090851224

DIPOLE MOMENT
-------------
                                X             Y             Z
Electronic contribution:     -2.17012       2.58337      -0.03686
Nuclear contribution   :      3.00234      -3.61718       0.02040
                        -----------------------------------------
Total Dipole Moment    :      0.83222      -1.03381      -0.01645
                        -----------------------------------------
Magnitude (a.u.)       :      1.32726
Magnitude (Debye)      :      3.37363

                             ****ORCA TERMINATED NORMALLY****
TOTAL RUN TIME: 0 days 0 hours 0 minutes 6 seconds 113 msec
