                         Program Version 3.0.3 - RELEASE   -
|  1> ! RI PBE def2-SVP def2-SVP/J NBO PAL2
|  2> % maxcore 2000
|  3> % output
|  4>     # printlevel mini
|  5>     print[ P_Basis ] 0
|  6>     print[ P_SCFInfo ] 1
|  7>     print[ P_SCFIterInfo ] 1
|  8>     print[ P_OrbEn ] 0
|  9>     print[ P_Cartesian ] 0
| 10> end
| 11> *xyz 0 1
| 12>  O        1.1679710000     0.3712370000     0.4727760000
| 13>  N        2.4031690000     0.3312960000    -0.1261990000
| 14>  C        3.2957440000     1.4473270000     0.0099170000
| 15>  C        4.5202750000     0.9159790000    -0.7468690000
| 16>  C        4.4456070000    -0.6077070000    -0.5907080000
| 17>  C        2.9981600000    -0.8719030000    -0.2594780000
| 18>  O        2.4081150000    -1.9210300000    -0.0703910000
| 19>  H        0.9745820000    -0.5826950000     0.5709400000
| 20>  H        3.5055080000     1.6518580000     1.0681880000
| 21>  H        2.8725740000     2.3475590000    -0.4390170000
| 22>  H        5.4463160000     1.3400140000    -0.3606210000
| 23>  H        4.4401910000     1.1890850000    -1.8001850000
| 24>  H        5.0427160000    -0.9710420000     0.2512790000
| 25>  H        4.7599740000    -1.1622780000    -1.4748420000
| 26> *
| 27>
| 28>                          ****END OF INPUT****
 Total Charge           Charge          ....    0
 Multiplicity           Mult            ....    1
 Number of Electrons    NEL             ....   54
 Basis Dimension        Dim             ....  133

MULLIKEN ATOMIC CHARGES
-----------------------
   0 O :   -0.166323
   1 N :   -0.144968
   2 C :    0.174156
   3 C :   -0.037766
   4 C :   -0.011549
   5 C :    0.052257
   6 O :   -0.228805
   7 H :    0.161492
   8 H :    0.021766
   9 H :    0.028367
  10 H :    0.024716
  11 H :    0.038261
  12 H :    0.045617
  13 H :    0.042780
Sum of atomic charges:   -0.0000000

LOEWDIN ATOMIC CHARGES
----------------------
   0 O :   -0.061315
   1 N :    0.058327
   2 C :    0.034964
   3 C :   -0.034316
   4 C :   -0.057358
   5 C :   -0.006039
   6 O :   -0.198529
   7 H :    0.064632
   8 H :    0.017461
   9 H :    0.026204
  10 H :    0.032060
  11 H :    0.034769
  12 H :    0.045868
  13 H :    0.043271

  Mayer bond orders larger than 0.1
B(  0-O ,  1-N ) :   1.0000 B(  0-O ,  7-H ) :   0.9293 B(  1-N ,  2-C ) :   0.9634
B(  1-N ,  5-C ) :   1.1989 B(  2-C ,  3-C ) :   1.0772 B(  2-C ,  8-H ) :   0.9227
B(  2-C ,  9-H ) :   0.9395 B(  3-C ,  4-C ) :   1.1127 B(  3-C , 10-H ) :   0.9363
B(  3-C , 11-H ) :   0.9349 B(  4-C ,  5-C ) :   0.9923 B(  4-C , 12-H ) :   0.9023
B(  4-C , 13-H ) :   0.9162 B(  5-C ,  6-O ) :   2.0307 B(  6-O ,  7-H ) :   0.1084

FINAL SINGLE POINT ENERGY      -361.114710333970

DIPOLE MOMENT
-------------
                                X             Y             Z
Electronic contribution:     -4.87350      -3.06549       0.86831
Nuclear contribution   :      5.75304       3.92777      -0.96030
                        -----------------------------------------
Total Dipole Moment    :      0.87954       0.86228      -0.09199
                        -----------------------------------------
Magnitude (a.u.)       :      1.23514
Magnitude (Debye)      :      3.13949

                             ****ORCA TERMINATED NORMALLY****
TOTAL RUN TIME: 0 days 0 hours 0 minutes 6 seconds 603 msec
