                         Program Version 3.0.3 - RELEASE   -
|  1> ! RI PBE def2-SVP def2-SVP/J NBO PAL2
|  2> % maxcore 2000
|  3> % output
|  4>     # printlevel mini
|  5>     print[ P_Basis ] 0
|  6>     print[ P_SCFInfo ] 1
|  7>     print[ P_SCFIterInfo ] 1
|  8>     print[ P_OrbEn ] 0
|  9>     print[ P_Cartesian ] 0
| 10> end
| 11> *xyz 0 1
| 12>  O        1.1905760000     0.1844160000    -0.3723940000
| 13>  N        2.4211570000     0.1732880000     0.2930590000
| 14>  C        3.1750950000     1.3397730000     0.0965880000
| 15>  C        4.4832880000     1.3064340000     0.3197490000
| 16>  C        5.1005840000     0.0232400000     0.7832380000
| 17>  N        4.3717130000    -1.1463610000     0.3062990000
| 18>  C        3.1340370000    -1.0143020000     0.1080760000
| 19>  H        0.5389680000     0.2053560000     0.3363370000
| 20>  H        2.6120090000     2.1946380000    -0.2509380000
| 21>  H        5.0894160000     2.1871880000     0.1524130000
| 22>  H        5.1362390000    -0.0207490000     1.8823690000
| 23>  H        6.1372260000    -0.0584350000     0.4465500000
| 24>  H        2.5184820000    -1.8411860000    -0.2384450000
| 25> *
| 26>
| 27>                          ****END OF INPUT****
 Total Charge           Charge          ....    0
 Multiplicity           Mult            ....    1
 Number of Electrons    NEL             ....   52
 Basis Dimension        Dim             ....  128

MULLIKEN ATOMIC CHARGES
-----------------------
   0 O :   -0.192041
   1 N :   -0.127115
   2 C :    0.118986
   3 C :   -0.166359
   4 C :    0.177688
   5 N :   -0.189186
   6 C :    0.102417
   7 H :    0.185482
   8 H :    0.008413
   9 H :    0.007416
  10 H :    0.036828
  11 H :    0.019033
  12 H :    0.018439
Sum of atomic charges:    0.0000000

LOEWDIN ATOMIC CHARGES
----------------------
   0 O :   -0.060498
   1 N :    0.034136
   2 C :   -0.009266
   3 C :   -0.092302
   4 C :    0.007083
   5 N :   -0.110935
   6 C :    0.018837
   7 H :    0.078425
   8 H :    0.028208
   9 H :    0.030812
  10 H :    0.029122
  11 H :    0.028479
  12 H :    0.017898

  Mayer bond orders larger than 0.1
B(  0-O ,  1-N ) :   0.9197 B(  0-O ,  7-H ) :   0.9763 B(  1-N ,  2-C ) :   1.0416
B(  1-N ,  6-C ) :   1.0389 B(  2-C ,  3-C ) :   1.8254 B(  2-C ,  8-H ) :   0.9609
B(  3-C ,  4-C ) :   1.0261 B(  3-C ,  9-H ) :   0.9565 B(  4-C ,  5-N ) :   1.0360
B(  4-C , 10-H ) :   0.9198 B(  4-C , 11-H ) :   0.9333 B(  5-N ,  6-C ) :   1.9537
B(  6-C , 12-H ) :   0.9484

FINAL SINGLE POINT ENERGY      -340.018491484991

DIPOLE MOMENT
-------------
                                X             Y             Z
Electronic contribution:     -2.56666      -1.20616      -0.62063
Nuclear contribution   :      1.85964       1.81403       1.00105
                        -----------------------------------------
Total Dipole Moment    :     -0.70702       0.60787       0.38042
                        -----------------------------------------
Magnitude (a.u.)       :      1.00703
Magnitude (Debye)      :      2.55966

                             ****ORCA TERMINATED NORMALLY****
TOTAL RUN TIME: 0 days 0 hours 0 minutes 6 seconds 204 msec
