                         Program Version 3.0.3 - RELEASE   -
|  1> ! RI PBE def2-SVP def2-SVP/J NBO PAL2
|  2> % maxcore 2000
|  3> % output
|  4>     # printlevel mini
|  5>     print[ P_Basis ] 0
|  6>     print[ P_SCFInfo ] 1
|  7>     print[ P_SCFIterInfo ] 1
|  8>     print[ P_OrbEn ] 0
|  9>     print[ P_Cartesian ] 0
| 10> end
| 11> *xyz 0 1
| 12>  O        0.9849940000     0.0459620000    -0.2840440000
| 13>  N        2.3092010000     0.1761080000     0.1600570000
| 14>  C        2.9572780000     1.3485070000    -0.3848260000
| 15>  C        4.3905960000     1.3381510000     0.1147960000
| 16>  C        5.0725620000     0.0323670000    -0.2751760000
| 17>  N        4.2576140000    -1.1562250000    -0.1088010000
| 18>  C        3.0097550000    -1.0160120000     0.0468750000
| 19>  H        0.4529470000     0.2613710000     0.4888330000
| 20>  H        2.4198560000     2.2354490000    -0.0417180000
| 21>  H        2.9201670000     1.3320440000    -1.4827620000
| 22>  H        4.3846890000     1.4427550000     1.2037730000
| 23>  H        4.9322520000     2.1963570000    -0.2910790000
| 24>  H        5.9882300000    -0.1029940000     0.3082410000
| 25>  H        5.3922580000     0.0665360000    -1.3238980000
| 26>  H        2.3689020000    -1.8905770000     0.1500280000
| 27> *
| 28>
| 29>                          ****END OF INPUT****
 Total Charge           Charge          ....    0
 Multiplicity           Mult            ....    1
 Number of Electrons    NEL             ....   54
 Basis Dimension        Dim             ....  138

MULLIKEN ATOMIC CHARGES
-----------------------
   0 O :   -0.196501
   1 N :   -0.187344
   2 C :    0.146330
   3 C :   -0.062999
   4 C :    0.105168
   5 N :   -0.198025
   6 C :    0.091773
   7 H :    0.181695
   8 H :    0.004282
   9 H :    0.020858
  10 H :    0.030166
  11 H :    0.017433
  12 H :    0.019313
  13 H :    0.020100
  14 H :    0.007748
Sum of atomic charges:   -0.0000000

LOEWDIN ATOMIC CHARGES
----------------------
   0 O :   -0.066971
   1 N :    0.000169
   2 C :    0.014755
   3 C :   -0.061091
   4 C :    0.001252
   5 N :   -0.136183
   6 C :    0.003297
   7 H :    0.075192
   8 H :    0.021110
   9 H :    0.016222
  10 H :    0.030794
  11 H :    0.032175
  12 H :    0.027466
  13 H :    0.027843
  14 H :    0.013969

  Mayer bond orders larger than 0.1
B(  0-O ,  1-N ) :   0.9327 B(  0-O ,  7-H ) :   0.9778 B(  1-N ,  2-C ) :   0.9742
B(  1-N ,  5-N ) :   0.1025 B(  1-N ,  6-C ) :   1.0803 B(  2-C ,  3-C ) :   1.0713
B(  2-C ,  8-H ) :   0.9324 B(  2-C ,  9-H ) :   0.9375 B(  3-C ,  4-C ) :   1.0734
B(  3-C , 10-H ) :   0.9292 B(  3-C , 11-H ) :   0.9242 B(  4-C ,  5-N ) :   1.0666
B(  4-C , 12-H ) :   0.9336 B(  4-C , 13-H ) :   0.9347 B(  5-N ,  6-C ) :   1.9247
B(  6-C , 14-H ) :   0.9471

FINAL SINGLE POINT ENERGY      -341.233758191012

DIPOLE MOMENT
-------------
                                X             Y             Z
Electronic contribution:     -3.34075      -3.22805       0.43347
Nuclear contribution   :      2.89242       4.21225      -0.11836
                        -----------------------------------------
Total Dipole Moment    :     -0.44833       0.98420       0.31511
                        -----------------------------------------
Magnitude (a.u.)       :      1.12647
Magnitude (Debye)      :      2.86327

                             ****ORCA TERMINATED NORMALLY****
TOTAL RUN TIME: 0 days 0 hours 0 minutes 7 seconds 153 msec
