                         Program Version 3.0.3 - RELEASE   -
|  1> ! RI PBE def2-SVP def2-SVP/J NBO PAL2
|  2> % maxcore 2000
|  3> % output
|  4>     # printlevel mini
|  5>     print[ P_Basis ] 0
|  6>     print[ P_SCFInfo ] 1
|  7>     print[ P_SCFIterInfo ] 1
|  8>     print[ P_OrbEn ] 0
|  9>     print[ P_Cartesian ] 0
| 10> end
| 11> *xyz 0 1
| 12>  O        1.2980400000     0.5236510000     0.6143810000
| 13>  N        2.4671170000     0.2785620000    -0.1247180000
| 14>  C        3.2922900000     1.3969320000    -0.2393460000
| 15>  N        4.5208850000     1.2312470000     0.0520950000
| 16>  C        4.6852950000    -0.1154450000     0.4991760000
| 17>  C        4.3934880000    -1.2025130000    -0.4994110000
| 18>  C        3.3085700000    -0.7633940000     0.4175350000
| 19>  H        0.5927970000     0.1915460000     0.0495890000
| 20>  H        2.8638170000     2.3260630000    -0.5964240000
| 21>  H        5.4211340000    -0.2833630000     1.2757440000
| 22>  H        4.8325580000    -2.1741870000    -0.3082860000
| 23>  H        4.3286070000    -0.9180840000    -1.5439390000
| 24>  H        2.8530030000    -1.4083050000     1.1559030000
| 25> *
| 26>
| 27>                          ****END OF INPUT****
 Total Charge           Charge          ....    0
 Multiplicity           Mult            ....    1
 Number of Electrons    NEL             ....   52
 Basis Dimension        Dim             ....  128

MULLIKEN ATOMIC CHARGES
-----------------------
   0 O :   -0.194857
   1 N :   -0.120099
   2 C :    0.112844
   3 N :   -0.131619
   4 C :   -0.045566
   5 C :    0.034553
   6 C :    0.018184
   7 H :    0.181093
   8 H :    0.014379
   9 H :    0.026564
  10 H :    0.037885
  11 H :    0.042418
  12 H :    0.024221
Sum of atomic charges:    0.0000000

LOEWDIN ATOMIC CHARGES
----------------------
   0 O :   -0.067024
   1 N :    0.016577
   2 C :    0.010545
   3 N :   -0.101291
   4 C :   -0.009732
   5 C :   -0.044867
   6 C :   -0.009657
   7 H :    0.075302
   8 H :    0.016701
   9 H :    0.020856
  10 H :    0.034732
  11 H :    0.033322
  12 H :    0.024536

  Mayer bond orders larger than 0.1
B(  0-O ,  1-N ) :   0.9232 B(  0-O ,  7-H ) :   0.9778 B(  1-N ,  2-C ) :   1.0895
B(  1-N ,  6-C ) :   0.9994 B(  2-C ,  3-N ) :   1.8229 B(  2-C ,  8-H ) :   0.9600
B(  3-N ,  4-C ) :   1.1273 B(  4-C ,  5-C ) :   0.9541 B(  4-C ,  6-C ) :   0.8893
B(  4-C ,  9-H ) :   0.9569 B(  5-C ,  6-C ) :   0.9822 B(  5-C , 10-H ) :   0.9391
B(  5-C , 11-H ) :   0.9201 B(  6-C , 12-H ) :   0.9503

FINAL SINGLE POINT ENERGY      -340.002862696258

DIPOLE MOMENT
-------------
                                X             Y             Z
Electronic contribution:     -1.51831       2.42519       0.41732
Nuclear contribution   :      0.74972      -3.20653      -0.59378
                        -----------------------------------------
Total Dipole Moment    :     -0.76860      -0.78135      -0.17646
                        -----------------------------------------
Magnitude (a.u.)       :      1.11013
Magnitude (Debye)      :      2.82172

                             ****ORCA TERMINATED NORMALLY****
TOTAL RUN TIME: 0 days 0 hours 0 minutes 6 seconds 477 msec
