                         Program Version 3.0.3 - RELEASE   -
|  1> ! RI PBE def2-SVP def2-SVP/J NBO PAL2
|  2> % maxcore 2000
|  3> % output
|  4>     # printlevel mini
|  5>     print[ P_Basis ] 0
|  6>     print[ P_SCFInfo ] 1
|  7>     print[ P_SCFIterInfo ] 1
|  8>     print[ P_OrbEn ] 0
|  9>     print[ P_Cartesian ] 0
| 10> end
| 11> *xyz 0 1
| 12>  O        1.1795670000    -0.1666650000    -0.1395980000
| 13>  N        2.5555560000    -0.2010360000    -0.2282690000
| 14>  C        3.2490530000    -1.2099220000     0.4278060000
| 15>  N        4.4412380000    -0.9296180000     0.7522930000
| 16>  C        4.6484470000     0.4637040000     0.3451940000
| 17>  C        3.2973160000     0.9788830000    -0.0941600000
| 18>  C        2.8556560000     2.2140350000    -0.2950900000
| 19>  H        0.8690440000    -0.2585890000    -1.0475750000
| 20>  H        2.7585010000    -2.1643860000     0.5832860000
| 21>  H        5.3655510000     0.4892680000    -0.4831540000
| 22>  H        5.0781610000     1.0445690000     1.1636930000
| 23>  H        3.5135150000     3.0584770000    -0.1436460000
| 24>  H        1.8337840000     2.4065690000    -0.5934690000
| 25> *
| 26>
| 27>                          ****END OF INPUT****
 Total Charge           Charge          ....    0
 Multiplicity           Mult            ....    1
 Number of Electrons    NEL             ....   52
 Basis Dimension        Dim             ....  128

MULLIKEN ATOMIC CHARGES
-----------------------
   0 O :   -0.173061
   1 N :   -0.114956
   2 C :    0.146889
   3 N :   -0.212227
   4 C :    0.157303
   5 C :   -0.043942
   6 C :   -0.074334
   7 H :    0.189919
   8 H :    0.016718
   9 H :    0.056186
  10 H :    0.043161
  11 H :    0.008297
  12 H :    0.000048
Sum of atomic charges:   -0.0000000

LOEWDIN ATOMIC CHARGES
----------------------
   0 O :   -0.046715
   1 N :    0.045154
   2 C :    0.023691
   3 N :   -0.125908
   4 C :    0.014902
   5 C :   -0.019566
   6 C :   -0.131408
   7 H :    0.083838
   8 H :    0.019958
   9 H :    0.045618
  10 H :    0.040573
  11 H :    0.029181
  12 H :    0.020682

  Mayer bond orders larger than 0.1
B(  0-O ,  1-N ) :   0.9494 B(  0-O ,  7-H ) :   0.9699 B(  1-N ,  2-C ) :   1.0613
B(  1-N ,  3-N ) :   0.1025 B(  1-N ,  5-C ) :   1.0478 B(  2-C ,  3-N ) :   1.8776
B(  2-C ,  8-H ) :   0.9614 B(  3-N ,  4-C ) :   1.0762 B(  4-C ,  5-C ) :   0.9992
B(  4-C ,  9-H ) :   0.9073 B(  4-C , 10-H ) :   0.9221 B(  5-C ,  6-C ) :   1.9285
B(  6-C , 11-H ) :   0.9271 B(  6-C , 12-H ) :   0.9147

FINAL SINGLE POINT ENERGY      -340.018059335303

DIPOLE MOMENT
-------------
                                X             Y             Z
Electronic contribution:     -1.23131      -3.29669       0.29590
Nuclear contribution   :      0.68142       3.39110      -1.01761
                        -----------------------------------------
Total Dipole Moment    :     -0.54989       0.09441      -0.72171
                        -----------------------------------------
Magnitude (a.u.)       :      0.91223
Magnitude (Debye)      :      2.31869

                             ****ORCA TERMINATED NORMALLY****
TOTAL RUN TIME: 0 days 0 hours 0 minutes 6 seconds 182 msec
