                         Program Version 3.0.3 - RELEASE   -
|  1> ! RI PBE def2-SVP def2-SVP/J NBO PAL2
|  2> % maxcore 2000
|  3> % output
|  4>     # printlevel mini
|  5>     print[ P_Basis ] 0
|  6>     print[ P_SCFInfo ] 1
|  7>     print[ P_SCFIterInfo ] 1
|  8>     print[ P_OrbEn ] 0
|  9>     print[ P_Cartesian ] 0
| 10> end
| 11> *xyz 0 1
| 12>  O        1.0446800000     0.3297570000    -0.5720100000
| 13>  N        2.4204560000     0.3328480000    -0.3481030000
| 14>  C        2.9831270000    -0.6417330000    -0.9283880000
| 15>  C        2.3463520000    -1.6892640000    -1.7991050000
| 16>  C        3.4980010000    -2.6377610000    -2.1440820000
| 17>  C        4.7465850000    -1.7580850000    -2.0577600000
| 18>  C        4.4684340000    -0.8608500000    -0.8512040000
| 19>  H        0.7534700000     1.1101520000    -0.0934970000
| 20>  H        1.9381370000    -1.2024010000    -2.6918560000
| 21>  H        1.5012570000    -2.1688690000    -1.3009230000
| 22>  H        3.3779480000    -3.1170790000    -3.1170690000
| 23>  H        3.5592020000    -3.4342060000    -1.3955610000
| 24>  H        4.8312770000    -1.1455900000    -2.9613940000
| 25>  H        5.6705220000    -2.3307710000    -1.9610470000
| 26>  H        5.0263780000     0.0756420000    -0.8397770000
| 27>  H        4.7063760000    -1.3963900000     0.0757870000
| 28> *
| 29>
| 30>                          ****END OF INPUT****
 Total Charge           Charge          ....    0
 Multiplicity           Mult            ....    1
 Number of Electrons    NEL             ....   54
 Basis Dimension        Dim             ....  143

MULLIKEN ATOMIC CHARGES
-----------------------
   0 O :   -0.188650
   1 N :   -0.034606
   2 C :   -0.291790
   3 C :    0.122174
   4 C :   -0.031897
   5 C :   -0.029974
   6 C :    0.119088
   7 H :    0.167933
   8 H :    0.030253
   9 H :    0.029016
  10 H :    0.008329
  11 H :    0.021448
  12 H :    0.020112
  13 H :    0.009227
  14 H :    0.021586
  15 H :    0.027751
Sum of atomic charges:   -0.0000000

LOEWDIN ATOMIC CHARGES
----------------------
   0 O :   -0.063985
   1 N :   -0.032353
   2 C :   -0.062647
   3 C :   -0.049767
   4 C :   -0.040126
   5 C :   -0.037658
   6 C :   -0.035623
   7 H :    0.070438
   8 H :    0.042245
   9 H :    0.037779
  10 H :    0.024282
  11 H :    0.026076
  12 H :    0.025043
  13 H :    0.023871
  14 H :    0.034719
  15 H :    0.037706

  Mayer bond orders larger than 0.1
B(  0-O ,  1-N ) :   0.9976 B(  0-O ,  7-H ) :   0.9770 B(  1-N ,  2-C ) :   1.9388
B(  2-C ,  3-C ) :   1.0277 B(  2-C ,  6-C ) :   1.0558 B(  3-C ,  4-C ) :   1.0825
B(  3-C ,  8-H ) :   0.9012 B(  3-C ,  9-H ) :   0.9130 B(  4-C ,  5-C ) :   1.0919
B(  4-C , 10-H ) :   0.9321 B(  4-C , 11-H ) :   0.9374 B(  5-C ,  6-C ) :   1.0710
B(  5-C , 12-H ) :   0.9423 B(  5-C , 13-H ) :   0.9336 B(  6-C , 14-H ) :   0.9234
B(  6-C , 15-H ) :   0.9122

FINAL SINGLE POINT ENERGY      -325.228756656781

DIPOLE MOMENT
-------------
                                X             Y             Z
Electronic contribution:     -3.87443       4.48851       2.88099
Nuclear contribution   :      3.93096      -4.65756      -3.00661
                        -----------------------------------------
Total Dipole Moment    :      0.05653      -0.16905      -0.12563
                        -----------------------------------------
Magnitude (a.u.)       :      0.21807
Magnitude (Debye)      :      0.55429

                             ****ORCA TERMINATED NORMALLY****
TOTAL RUN TIME: 0 days 0 hours 0 minutes 7 seconds 690 msec
