                         Program Version 3.0.3 - RELEASE   -
|  1> ! RI PBE def2-SVP def2-SVP/J NBO PAL2
|  2> % maxcore 2000
|  3> % output
|  4>     # printlevel mini
|  5>     print[ P_Basis ] 0
|  6>     print[ P_SCFInfo ] 1
|  7>     print[ P_SCFIterInfo ] 1
|  8>     print[ P_OrbEn ] 0
|  9>     print[ P_Cartesian ] 0
| 10> end
| 11> *xyz 0 1
| 12>  O        1.0164160000    -0.0343450000    -0.0212360000
| 13>  N        2.3769500000    -0.0292410000    -0.1040640000
| 14>  C        2.9443500000    -0.1385370000     1.0386890000
| 15>  C        4.4049760000    -0.1533920000     1.1643570000
| 16>  C        4.6869030000    -0.2776870000     2.4718840000
| 17>  C        3.4269090000    -0.3467690000     3.2286350000
| 18>  C        2.3825680000    -0.2647210000     2.3839340000
| 19>  H        0.7376210000     0.0529800000    -0.9380500000
| 20>  H        5.0851590000    -0.0758090000     0.3299900000
| 21>  H        5.6715740000    -0.3217210000     2.9162300000
| 22>  H        3.3673550000    -0.4484450000     4.3042910000
| 23>  H        1.3305290000    -0.2848130000     2.6186600000
| 24> *
| 25>
| 26>                          ****END OF INPUT****
 Total Charge           Charge          ....    0
 Multiplicity           Mult            ....    1
 Number of Electrons    NEL             ....   50
 Basis Dimension        Dim             ....  123

MULLIKEN ATOMIC CHARGES
-----------------------
   0 O :   -0.131547
   1 N :    0.011409
   2 C :   -0.086133
   3 C :    0.036871
   4 C :    0.011938
   5 C :    0.008735
   6 C :    0.026081
   7 H :    0.181340
   8 H :   -0.018195
   9 H :   -0.014651
  10 H :   -0.008130
  11 H :   -0.017718
Sum of atomic charges:   -0.0000000

LOEWDIN ATOMIC CHARGES
----------------------
   0 O :   -0.010499
   1 N :    0.023362
   2 C :   -0.054712
   3 C :   -0.039853
   4 C :   -0.030785
   5 C :   -0.009025
   6 C :   -0.064339
   7 H :    0.082959
   8 H :    0.027959
   9 H :    0.023765
  10 H :    0.024564
  11 H :    0.026605

  Mayer bond orders larger than 0.1
B(  0-O ,  1-N ) :   1.0568 B(  0-O ,  7-H ) :   0.9701 B(  1-N ,  2-C ) :   1.7749
B(  2-C ,  3-C ) :   1.0715 B(  2-C ,  6-C ) :   1.0469 B(  3-C ,  4-C ) :   1.6401
B(  3-C ,  8-H ) :   1.0080 B(  4-C ,  5-C ) :   1.0705 B(  4-C ,  9-H ) :   0.9961
B(  5-C ,  6-C ) :   1.6316 B(  5-C , 10-H ) :   0.9918 B(  6-C , 11-H ) :   1.0144

FINAL SINGLE POINT ENERGY      -322.799298729876

DIPOLE MOMENT
-------------
                                X             Y             Z
Electronic contribution:     -1.64724       0.22614      -2.37293
Nuclear contribution   :      1.33746      -0.20774       2.16646
                        -----------------------------------------
Total Dipole Moment    :     -0.30977       0.01839      -0.20647
                        -----------------------------------------
Magnitude (a.u.)       :      0.37273
Magnitude (Debye)      :      0.94741

                             ****ORCA TERMINATED NORMALLY****
TOTAL RUN TIME: 0 days 0 hours 0 minutes 5 seconds 550 msec
