                         Program Version 3.0.3 - RELEASE   -
|  1> ! RI PBE def2-SVP def2-SVP/J NBO PAL2
|  2> % maxcore 2000
|  3> % output
|  4>     # printlevel mini
|  5>     print[ P_Basis ] 0
|  6>     print[ P_SCFInfo ] 1
|  7>     print[ P_SCFIterInfo ] 1
|  8>     print[ P_OrbEn ] 0
|  9>     print[ P_Cartesian ] 0
| 10> end
| 11> *xyz 0 1
| 12>  O        1.0672150000     0.0150140000    -0.4010410000
| 13>  N        2.4486770000    -0.0897560000    -0.2738070000
| 14>  C        3.0369200000     0.8841560000    -0.8268650000
| 15>  C        2.4121110000     2.0476620000    -1.5499750000
| 16>  C        3.6098140000     2.8457700000    -1.9690120000
| 17>  C        4.7521850000     2.2876880000    -1.5824790000
| 18>  C        4.5405120000     1.0080310000    -0.8298880000
| 19>  H        0.7533710000    -0.7713160000     0.0531250000
| 20>  H        1.7282500000     2.5987610000    -0.8935030000
| 21>  H        1.7992360000     1.7053860000    -2.3923370000
| 22>  H        3.5296470000     3.7722030000    -2.5249090000
| 23>  H        5.7380020000     2.6922470000    -1.7770320000
| 24>  H        4.9443720000     1.0466780000     0.1878260000
| 25>  H        5.0151970000     0.1495660000    -1.3178050000
| 26> *
| 27>
| 28>                          ****END OF INPUT****
 Total Charge           Charge          ....    0
 Multiplicity           Mult            ....    1
 Number of Electrons    NEL             ....   52
 Basis Dimension        Dim             ....  133

MULLIKEN ATOMIC CHARGES
-----------------------
   0 O :   -0.182969
   1 N :   -0.029950
   2 C :   -0.306378
   3 C :    0.170934
   4 C :   -0.065298
   5 C :   -0.076780
   6 C :    0.177986
   7 H :    0.168787
   8 H :    0.045419
   9 H :    0.043098
  10 H :   -0.012983
  11 H :   -0.014878
  12 H :    0.041085
  13 H :    0.041927
Sum of atomic charges:    0.0000000

LOEWDIN ATOMIC CHARGES
----------------------
   0 O :   -0.060148
   1 N :   -0.028537
   2 C :   -0.052781
   3 C :   -0.049986
   4 C :   -0.035248
   5 C :   -0.036321
   6 C :   -0.034672
   7 H :    0.071730
   8 H :    0.045699
   9 H :    0.045572
  10 H :    0.022813
  11 H :    0.022678
  12 H :    0.044520
  13 H :    0.044681

  Mayer bond orders larger than 0.1
B(  0-O ,  1-N ) :   1.0029 B(  0-O ,  7-H ) :   0.9759 B(  1-N ,  2-C ) :   1.9403
B(  2-C ,  3-C ) :   1.0257 B(  2-C ,  6-C ) :   1.0449 B(  3-C ,  4-C ) :   1.0135
B(  3-C ,  8-H ) :   0.8932 B(  3-C ,  9-H ) :   0.8915 B(  4-C ,  5-C ) :   1.8593
B(  4-C , 10-H ) :   0.9811 B(  5-C ,  6-C ) :   1.0219 B(  5-C , 11-H ) :   0.9848
B(  6-C , 12-H ) :   0.8994 B(  6-C , 13-H ) :   0.9000

FINAL SINGLE POINT ENERGY      -324.009953222640

DIPOLE MOMENT
-------------
                                X             Y             Z
Electronic contribution:     -2.04123      -2.32873       1.29556
Nuclear contribution   :      2.04068       2.41270      -1.34256
                        -----------------------------------------
Total Dipole Moment    :     -0.00055       0.08397      -0.04700
                        -----------------------------------------
Magnitude (a.u.)       :      0.09623
Magnitude (Debye)      :      0.24461

                             ****ORCA TERMINATED NORMALLY****
TOTAL RUN TIME: 0 days 0 hours 0 minutes 5 seconds 793 msec
