                         Program Version 3.0.3 - RELEASE   -
|  1> ! RI PBE def2-SVP def2-SVP/J NBO PAL2
|  2> % maxcore 2000
|  3> % output
|  4>     # printlevel mini
|  5>     print[ P_Basis ] 0
|  6>     print[ P_SCFInfo ] 1
|  7>     print[ P_SCFIterInfo ] 1
|  8>     print[ P_OrbEn ] 0
|  9>     print[ P_Cartesian ] 0
| 10> end
| 11> *xyz 0 1
| 12>  O        0.9143050000    -0.0135020000    -0.2065600000
| 13>  N        2.3015620000    -0.0310440000    -0.0888590000
| 14>  C        2.8200250000     1.0748040000    -0.4447780000
| 15>  C        4.3128750000     1.3004090000    -0.4060730000
| 16>  C        4.4984030000     2.7435420000    -0.9086680000
| 17>  C        3.1062720000     3.2164340000    -1.1909580000
| 18>  C        2.1807290000     2.2891990000    -0.9325930000
| 19>  H        0.6695830000    -0.8934140000     0.0901410000
| 20>  H        4.8268100000     0.5753190000    -1.0395990000
| 21>  H        4.6951270000     1.1655490000     0.6072900000
| 22>  H        5.1208870000     2.7946170000    -1.8080860000
| 23>  H        4.9878620000     3.3832390000    -0.1668530000
| 24>  H        2.8953840000     4.2117960000    -1.5654410000
| 25>  H        1.1125760000     2.3921600000    -1.0556830000
| 26> *
| 27>
| 28>                          ****END OF INPUT****
 Total Charge           Charge          ....    0
 Multiplicity           Mult            ....    1
 Number of Electrons    NEL             ....   52
 Basis Dimension        Dim             ....  133

MULLIKEN ATOMIC CHARGES
-----------------------
   0 O :   -0.184151
   1 N :   -0.039937
   2 C :   -0.198053
   3 C :    0.107973
   4 C :    0.018115
   5 C :   -0.064579
   6 C :    0.069783
   7 H :    0.168491
   8 H :    0.036358
   9 H :    0.030829
  10 H :    0.034507
  11 H :    0.036036
  12 H :   -0.004376
  13 H :   -0.010996
Sum of atomic charges:    0.0000000

LOEWDIN ATOMIC CHARGES
----------------------
   0 O :   -0.062676
   1 N :   -0.035550
   2 C :   -0.070098
   3 C :   -0.026962
   4 C :   -0.040368
   5 C :   -0.000570
   6 C :   -0.044892
   7 H :    0.071267
   8 H :    0.041050
   9 H :    0.039769
  10 H :    0.037160
  11 H :    0.037501
  12 H :    0.023786
  13 H :    0.030582

  Mayer bond orders larger than 0.1
B(  0-O ,  1-N ) :   0.9946 B(  0-O ,  7-H ) :   0.9766 B(  1-N ,  2-C ) :   1.8528
B(  2-C ,  3-C ) :   1.0690 B(  2-C ,  6-C ) :   1.0572 B(  3-C ,  4-C ) :   1.1005
B(  3-C ,  8-H ) :   0.9134 B(  3-C ,  9-H ) :   0.9146 B(  4-C ,  5-C ) :   1.0723
B(  4-C , 10-H ) :   0.9128 B(  4-C , 11-H ) :   0.9133 B(  5-C ,  6-C ) :   1.7107
B(  5-C , 12-H ) :   0.9735 B(  6-C , 13-H ) :   1.0033

FINAL SINGLE POINT ENERGY      -324.015116938595

DIPOLE MOMENT
-------------
                                X             Y             Z
Electronic contribution:     -3.99630      -2.96535       0.74026
Nuclear contribution   :      4.20698       3.24269      -0.82664
                        -----------------------------------------
Total Dipole Moment    :      0.21068       0.27734      -0.08638
                        -----------------------------------------
Magnitude (a.u.)       :      0.35884
Magnitude (Debye)      :      0.91210

                             ****ORCA TERMINATED NORMALLY****
TOTAL RUN TIME: 0 days 0 hours 0 minutes 6 seconds 201 msec
