                         Program Version 3.0.3 - RELEASE   -
|  1> ! RI PBE def2-SVP def2-SVP/J NBO PAL2
|  2> % maxcore 2000
|  3> % output
|  4>     # printlevel mini
|  5>     print[ P_Basis ] 0
|  6>     print[ P_SCFInfo ] 1
|  7>     print[ P_SCFIterInfo ] 1
|  8>     print[ P_OrbEn ] 0
|  9>     print[ P_Cartesian ] 0
| 10> end
| 11> *xyz 0 1
| 12>  O        1.0840380000    -0.1942690000    -0.2857350000
| 13>  N        2.4643930000    -0.0120900000    -0.0824720000
| 14>  C        2.9326530000    -0.9709060000     0.6113090000
| 15>  C        2.2331210000    -2.1963250000     1.1249190000
| 16>  C        3.3027900000    -2.8883950000     1.9731070000
| 17>  C        4.6148240000    -2.3704520000     1.3876690000
| 18>  N        4.2540500000    -1.0223780000     0.9942040000
| 19>  H        0.8531450000     0.5827230000    -0.7992060000
| 20>  H        1.9235250000    -2.8021230000     0.2678040000
| 21>  H        1.3257270000    -1.9383980000     1.6710920000
| 22>  H        3.2353830000    -3.9761360000     1.9492160000
| 23>  H        3.2195340000    -2.5670780000     3.0137120000
| 24>  H        4.9295210000    -2.9855710000     0.5313340000
| 25>  H        5.4291140000    -2.3616400000     2.1150960000
| 26>  H        4.9071800000    -0.4569520000     0.4763630000
| 27> *
| 28>
| 29>                          ****END OF INPUT****
 Total Charge           Charge          ....    0
 Multiplicity           Mult            ....    1
 Number of Electrons    NEL             ....   54
 Basis Dimension        Dim             ....  138

MULLIKEN ATOMIC CHARGES
-----------------------
   0 O :   -0.208554
   1 N :   -0.080493
   2 C :   -0.097303
   3 C :    0.059342
   4 C :   -0.047130
   5 C :    0.108595
   6 N :   -0.167060
   7 H :    0.163146
   8 H :    0.036990
   9 H :    0.037656
  10 H :    0.022239
  11 H :    0.032036
  12 H :    0.013745
  13 H :    0.018963
  14 H :    0.107827
Sum of atomic charges:   -0.0000000

LOEWDIN ATOMIC CHARGES
----------------------
   0 O :   -0.082814
   1 N :   -0.099671
   2 C :   -0.045155
   3 C :   -0.048784
   4 C :   -0.041282
   5 C :    0.026222
   6 N :   -0.019191
   7 H :    0.066632
   8 H :    0.042890
   9 H :    0.040399
  10 H :    0.029171
  11 H :    0.031870
  12 H :    0.008934
  13 H :    0.021229
  14 H :    0.069550

  Mayer bond orders larger than 0.1
B(  0-O ,  1-N ) :   0.9668 B(  0-O ,  7-H ) :   0.9802 B(  1-N ,  2-C ) :   1.8380
B(  2-C ,  3-C ) :   1.0169 B(  2-C ,  6-N ) :   1.1768 B(  3-C ,  4-C ) :   1.1040
B(  3-C ,  8-H ) :   0.9065 B(  3-C ,  9-H ) :   0.9179 B(  4-C ,  5-C ) :   1.0971
B(  4-C , 10-H ) :   0.9350 B(  4-C , 11-H ) :   0.9326 B(  5-C ,  6-N ) :   1.0105
B(  5-C , 12-H ) :   0.9308 B(  5-C , 13-H ) :   0.9419 B(  6-N , 14-H ) :   0.9293

FINAL SINGLE POINT ENERGY      -341.252853980023

DIPOLE MOMENT
-------------
                                X             Y             Z
Electronic contribution:     -1.69144       4.84247      -2.66012
Nuclear contribution   :      2.11780      -5.30533       2.73457
                        -----------------------------------------
Total Dipole Moment    :      0.42637      -0.46286       0.07444
                        -----------------------------------------
Magnitude (a.u.)       :      0.63370
Magnitude (Debye)      :      1.61073

                             ****ORCA TERMINATED NORMALLY****
TOTAL RUN TIME: 0 days 0 hours 0 minutes 7 seconds 255 msec
