                         Program Version 3.0.3 - RELEASE   -
|  1> ! RI PBE def2-SVP def2-SVP/J NBO PAL2
|  2> % maxcore 2000
|  3> % output
|  4>     # printlevel mini
|  5>     print[ P_Basis ] 0
|  6>     print[ P_SCFInfo ] 1
|  7>     print[ P_SCFIterInfo ] 1
|  8>     print[ P_OrbEn ] 0
|  9>     print[ P_Cartesian ] 0
| 10> end
| 11> *xyz 0 1
| 12>  O        1.0819260000     0.1635430000     0.2842280000
| 13>  N        2.4711480000     0.0542850000     0.1321020000
| 14>  C        2.9859930000    -0.3761790000     1.2136990000
| 15>  C        2.3349620000    -0.7485770000     2.5212020000
| 16>  C        3.5058010000    -1.1728790000     3.3608320000
| 17>  C        4.6172150000    -1.0525830000     2.6320030000
| 18>  N        4.3395380000    -0.5827410000     1.3566520000
| 19>  H        0.8069340000     0.4899630000    -0.5755500000
| 20>  H        1.5909310000    -1.5368270000     2.3606650000
| 21>  H        1.7827030000     0.1076290000     2.9244760000
| 22>  H        3.4505190000    -1.5162140000     4.3812380000
| 23>  H        5.6395190000    -1.2665460000     2.9085180000
| 24>  H        5.0068200000    -0.4113740000     0.6284340000
| 25> *
| 26>
| 27>                          ****END OF INPUT****
 Total Charge           Charge          ....    0
 Multiplicity           Mult            ....    1
 Number of Electrons    NEL             ....   52
 Basis Dimension        Dim             ....  128

MULLIKEN ATOMIC CHARGES
-----------------------
   0 O :   -0.200285
   1 N :   -0.062436
   2 C :   -0.107111
   3 C :    0.139834
   4 C :   -0.149360
   5 C :    0.110271
   6 N :   -0.097832
   7 H :    0.166752
   8 H :    0.053299
   9 H :    0.050451
  10 H :   -0.009300
  11 H :   -0.005496
  12 H :    0.111214
Sum of atomic charges:   -0.0000000

LOEWDIN ATOMIC CHARGES
----------------------
   0 O :   -0.073028
   1 N :   -0.091280
   2 C :   -0.031031
   3 C :   -0.042469
   4 C :   -0.104559
   5 C :    0.008794
   6 N :    0.038375
   7 H :    0.069721
   8 H :    0.050107
   9 H :    0.049514
  10 H :    0.023425
  11 H :    0.023554
  12 H :    0.078878

  Mayer bond orders larger than 0.1
B(  0-O ,  1-N ) :   0.9782 B(  0-O ,  7-H ) :   0.9784 B(  1-N ,  2-C ) :   1.8345
B(  2-C ,  3-C ) :   1.0127 B(  2-C ,  6-N ) :   1.1522 B(  3-C ,  4-C ) :   1.0521
B(  3-C ,  8-H ) :   0.8929 B(  3-C ,  9-H ) :   0.8936 B(  4-C ,  5-C ) :   1.7250
B(  4-C , 10-H ) :   0.9871 B(  5-C ,  6-N ) :   1.1012 B(  5-C , 11-H ) :   0.9846
B(  6-N , 12-H ) :   0.9331

FINAL SINGLE POINT ENERGY      -340.040926945783

DIPOLE MOMENT
-------------
                                X             Y             Z
Electronic contribution:      0.10326       0.98865      -2.92773
Nuclear contribution   :      0.33487      -1.04288       2.92694
                        -----------------------------------------
Total Dipole Moment    :      0.43813      -0.05423      -0.00079
                        -----------------------------------------
Magnitude (a.u.)       :      0.44148
Magnitude (Debye)      :      1.12215

                             ****ORCA TERMINATED NORMALLY****
TOTAL RUN TIME: 0 days 0 hours 0 minutes 6 seconds 523 msec
