                         Program Version 3.0.3 - RELEASE   -
|  1> ! RI PBE def2-SVP def2-SVP/J NBO PAL2
|  2> % maxcore 2000
|  3> % output
|  4>     # printlevel mini
|  5>     print[ P_Basis ] 0
|  6>     print[ P_SCFInfo ] 1
|  7>     print[ P_SCFIterInfo ] 1
|  8>     print[ P_OrbEn ] 0
|  9>     print[ P_Cartesian ] 0
| 10> end
| 11> *xyz 0 1
| 12>  O        1.5006000000    -0.7452880000     0.4471040000
| 13>  N        2.0893240000     0.1649860000    -0.1178310000
| 14>  C        2.8328860000    -0.2230530000    -1.2063390000
| 15>  C        3.6036450000     0.5727210000    -2.0425220000
| 16>  C        4.1680350000    -0.2725600000    -3.0030350000
| 17>  C        3.7264630000    -1.5580900000    -2.7262940000
| 18>  N        2.9262090000    -1.5150430000    -1.6461350000
| 19>  H        3.7216010000     1.6399200000    -1.9399480000
| 20>  H        4.8242370000     0.0043220000    -3.8126260000
| 21>  H        3.9370710000    -2.4867690000    -3.2342660000
| 22>  H        2.4472390000    -2.2752450000    -1.1912970000
| 23> *
| 24>
| 25>                          ****END OF INPUT****
 Total Charge           Charge          ....    0
 Multiplicity           Mult            ....    1
 Number of Electrons    NEL             ....   50
 Basis Dimension        Dim             ....  118

MULLIKEN ATOMIC CHARGES
-----------------------
   0 O :   -0.251412
   1 N :    0.078342
   2 C :    0.004896
   3 C :   -0.010712
   4 C :   -0.025125
   5 C :    0.092649
   6 N :   -0.013145
   7 H :   -0.006407
   8 H :    0.000520
   9 H :    0.012084
  10 H :    0.118310
Sum of atomic charges:   -0.0000000

LOEWDIN ATOMIC CHARGES
----------------------
   0 O :   -0.173808
   1 N :    0.029381
   2 C :   -0.082201
   3 C :   -0.025279
   4 C :   -0.071556
   5 C :    0.023705
   6 N :    0.120082
   7 H :    0.038148
   8 H :    0.031391
   9 H :    0.027813
  10 H :    0.082323

  Mayer bond orders larger than 0.1
B(  0-O ,  1-N ) :   1.5777 B(  0-O ,  2-C ) :   0.1280 B(  1-N ,  2-C ) :   1.3048
B(  2-C ,  3-C ) :   1.3239 B(  2-C ,  6-N ) :   1.1832 B(  3-C ,  4-C ) :   1.3556
B(  3-C ,  7-H ) :   1.0186 B(  4-C ,  5-C ) :   1.3666 B(  4-C ,  8-H ) :   1.0023
B(  5-C ,  6-N ) :   1.2926 B(  5-C ,  9-H ) :   0.9853 B(  6-N , 10-H ) :   0.9087

FINAL SINGLE POINT ENERGY      -338.844643381758

DIPOLE MOMENT
-------------
                                X             Y             Z
Electronic contribution:     -2.25792       0.12554       3.05083
Nuclear contribution   :      2.98985      -0.90793      -4.21777
                        -----------------------------------------
Total Dipole Moment    :      0.73192      -0.78238      -1.16694
                        -----------------------------------------
Magnitude (a.u.)       :      1.58417
Magnitude (Debye)      :      4.02664

                             ****ORCA TERMINATED NORMALLY****
TOTAL RUN TIME: 0 days 0 hours 0 minutes 5 seconds 911 msec
