                         Program Version 3.0.3 - RELEASE   -
|  1> ! RI PBE def2-SVP def2-SVP/J NBO PAL2
|  2> % maxcore 2000
|  3> % output
|  4>     # printlevel mini
|  5>     print[ P_Basis ] 0
|  6>     print[ P_SCFInfo ] 1
|  7>     print[ P_SCFIterInfo ] 1
|  8>     print[ P_OrbEn ] 0
|  9>     print[ P_Cartesian ] 0
| 10> end
| 11> *xyz 0 1
| 12>  O        1.1573410000     0.3058470000    -0.2184410000
| 13>  N        2.5218730000     0.0175850000    -0.0877920000
| 14>  C        3.0224220000    -0.2217540000    -1.2254150000
| 15>  C        2.3812060000    -0.2156160000    -2.5788850000
| 16>  C        3.4365630000    -0.9046770000    -3.4400530000
| 17>  C        4.7149930000    -0.5947300000    -2.6771460000
| 18>  O        4.3320500000    -0.5429780000    -1.3024750000
| 19>  H        0.8942320000     0.4483080000     0.6937050000
| 20>  H        2.2031580000     0.8193470000    -2.8873750000
| 21>  H        1.4129920000    -0.7146940000    -2.5572470000
| 22>  H        3.4646310000    -0.5444450000    -4.4685610000
| 23>  H        3.2637750000    -1.9830820000    -3.4603920000
| 24>  H        5.1331380000     0.3766740000    -2.9664990000
| 25>  H        5.4902250000    -1.3544740000    -2.7747140000
| 26> *
| 27>
| 28>                          ****END OF INPUT****
 Total Charge           Charge          ....    0
 Multiplicity           Mult            ....    1
 Number of Electrons    NEL             ....   54
 Basis Dimension        Dim             ....  133

MULLIKEN ATOMIC CHARGES
-----------------------
   0 O :   -0.205214
   1 N :   -0.042679
   2 C :   -0.036149
   3 C :    0.040746
   4 C :   -0.059512
   5 C :    0.185397
   6 O :   -0.254092
   7 H :    0.171208
   8 H :    0.044633
   9 H :    0.042541
  10 H :    0.020011
  11 H :    0.039876
  12 H :    0.021279
  13 H :    0.031954
Sum of atomic charges:   -0.0000000

LOEWDIN ATOMIC CHARGES
----------------------
   0 O :   -0.072914
   1 N :   -0.066321
   2 C :   -0.028273
   3 C :   -0.057433
   4 C :   -0.051276
   5 C :    0.078772
   6 O :   -0.069357
   7 H :    0.071743
   8 H :    0.045405
   9 H :    0.042377
  10 H :    0.032830
  11 H :    0.033968
  12 H :    0.015310
  13 H :    0.025168

  Mayer bond orders larger than 0.1
B(  0-O ,  1-N ) :   0.9744 B(  0-O ,  7-H ) :   0.9782 B(  1-N ,  2-C ) :   1.8724
B(  2-C ,  3-C ) :   1.0142 B(  2-C ,  6-O ) :   1.1495 B(  3-C ,  4-C ) :   1.0911
B(  3-C ,  8-H ) :   0.9125 B(  3-C ,  9-H ) :   0.9155 B(  4-C ,  5-C ) :   1.0941
B(  4-C , 10-H ) :   0.9259 B(  4-C , 11-H ) :   0.9362 B(  5-C ,  6-O ) :   0.9627
B(  5-C , 12-H ) :   0.9407 B(  5-C , 13-H ) :   0.9497

FINAL SINGLE POINT ENERGY      -361.085522444243

DIPOLE MOMENT
-------------
                                X             Y             Z
Electronic contribution:     -0.61618       0.78799       5.72758
Nuclear contribution   :      0.49292      -0.82817      -6.64155
                        -----------------------------------------
Total Dipole Moment    :     -0.12326      -0.04018      -0.91398
                        -----------------------------------------
Magnitude (a.u.)       :      0.92312
Magnitude (Debye)      :      2.34639

                             ****ORCA TERMINATED NORMALLY****
TOTAL RUN TIME: 0 days 0 hours 0 minutes 6 seconds 697 msec
