                         Program Version 3.0.3 - RELEASE   -
|  1> ! RI PBE def2-SVP def2-SVP/J NBO PAL2
|  2> % maxcore 2000
|  3> % output
|  4>     # printlevel mini
|  5>     print[ P_Basis ] 0
|  6>     print[ P_SCFInfo ] 1
|  7>     print[ P_SCFIterInfo ] 1
|  8>     print[ P_OrbEn ] 0
|  9>     print[ P_Cartesian ] 0
| 10> end
| 11> *xyz 0 1
| 12>  O        0.9887520000     0.0409100000    -0.2670060000
| 13>  N        2.3605010000     0.0797490000    -0.0239090000
| 14>  C        2.8740150000     1.0527960000    -0.6440630000
| 15>  C        2.2591970000     2.0901750000    -1.5356630000
| 16>  C        3.4659390000     2.8995100000    -1.8967780000
| 17>  C        4.5145540000     2.3622580000    -1.2901550000
| 18>  O        4.2206660000     1.2575810000    -0.5288650000
| 19>  H        0.7101860000    -0.7228230000     0.2444480000
| 20>  H        1.4850510000     2.6503000000    -0.9998100000
| 21>  H        1.7607840000     1.6189590000    -2.3899000000
| 22>  H        3.4802440000     3.7668060000    -2.5374170000
| 23>  H        5.5580190000     2.6377790000    -1.2875830000
| 24> *
| 25>
| 26>                          ****END OF INPUT****
 Total Charge           Charge          ....    0
 Multiplicity           Mult            ....    1
 Number of Electrons    NEL             ....   52
 Basis Dimension        Dim             ....  123

MULLIKEN ATOMIC CHARGES
-----------------------
   0 O :   -0.195420
   1 N :   -0.024200
   2 C :   -0.044083
   3 C :    0.130103
   4 C :   -0.134651
   5 C :    0.156474
   6 O :   -0.195629
   7 H :    0.175947
   8 H :    0.059565
   9 H :    0.057003
  10 H :    0.006421
  11 H :    0.008469
Sum of atomic charges:   -0.0000000

LOEWDIN ATOMIC CHARGES
----------------------
   0 O :   -0.060905
   1 N :   -0.050931
   2 C :   -0.009673
   3 C :   -0.049773
   4 C :   -0.094979
   5 C :    0.049217
   6 O :   -0.020633
   7 H :    0.075799
   8 H :    0.052175
   9 H :    0.052059
  10 H :    0.031093
  11 H :    0.026552

  Mayer bond orders larger than 0.1
B(  0-O ,  1-N ) :   0.9890 B(  0-O ,  7-H ) :   0.9764 B(  1-N ,  2-C ) :   1.8822
B(  2-C ,  3-C ) :   1.0219 B(  2-C ,  6-O ) :   1.1009 B(  3-C ,  4-C ) :   1.0376
B(  3-C ,  8-H ) :   0.8918 B(  3-C ,  9-H ) :   0.8899 B(  4-C ,  5-C ) :   1.7581
B(  4-C , 10-H ) :   0.9817 B(  5-C ,  6-O ) :   1.0646 B(  5-C , 11-H ) :   1.0007

FINAL SINGLE POINT ENERGY      -359.870129287988

DIPOLE MOMENT
-------------
                                X             Y             Z
Electronic contribution:      1.13243      -2.59704       2.15680
Nuclear contribution   :     -1.40801       3.01826      -2.51855
                        -----------------------------------------
Total Dipole Moment    :     -0.27558       0.42122      -0.36176
                        -----------------------------------------
Magnitude (a.u.)       :      0.61987
Magnitude (Debye)      :      1.57558

                             ****ORCA TERMINATED NORMALLY****
TOTAL RUN TIME: 0 days 0 hours 0 minutes 5 seconds 840 msec
