                         Program Version 3.0.3 - RELEASE   -
|  1> ! RI PBE def2-SVP def2-SVP/J NBO PAL2
|  2> % maxcore 2000
|  3> % output
|  4>     # printlevel mini
|  5>     print[ P_Basis ] 0
|  6>     print[ P_SCFInfo ] 1
|  7>     print[ P_SCFIterInfo ] 1
|  8>     print[ P_OrbEn ] 0
|  9>     print[ P_Cartesian ] 0
| 10> end
| 11> *xyz 0 1
| 12>  O        0.9602080000     0.4484480000     0.1240790000
| 13>  N        2.3456850000     0.3209690000     0.1916280000
| 14>  C        2.8849560000     0.5331910000    -0.9321510000
| 15>  C        2.2382640000     0.9146950000    -2.2308970000
| 16>  C        3.4333280000     0.9472410000    -3.1959140000
| 17>  N        4.6254630000     1.1897430000    -2.3842320000
| 18>  C        4.3797350000     0.4722130000    -1.1377350000
| 19>  H        0.6882350000     0.2751540000     1.0292810000
| 20>  H        1.7682360000     1.8985030000    -2.1265910000
| 21>  H        1.4460340000     0.2164610000    -2.5103290000
| 22>  H        3.3418610000     1.7013880000    -3.9781680000
| 23>  H        3.5418780000    -0.0246820000    -3.6887630000
| 24>  H        4.6882090000     2.1810250000    -2.1825130000
| 25>  H        4.9421720000     0.8916870000    -0.3036710000
| 26>  H        4.6922370000    -0.5729570000    -1.2548160000
| 27> *
| 28>
| 29>                          ****END OF INPUT****
 Total Charge           Charge          ....    0
 Multiplicity           Mult            ....    1
 Number of Electrons    NEL             ....   54
 Basis Dimension        Dim             ....  138

MULLIKEN ATOMIC CHARGES
-----------------------
   0 O :   -0.185761
   1 N :   -0.035506
   2 C :   -0.318671
   3 C :    0.096508
   4 C :    0.062538
   5 N :   -0.258834
   6 C :    0.219479
   7 H :    0.167993
   8 H :    0.031835
   9 H :    0.034063
  10 H :    0.015930
  11 H :    0.018638
  12 H :    0.099085
  13 H :    0.025368
  14 H :    0.027335
Sum of atomic charges:   -0.0000000

LOEWDIN ATOMIC CHARGES
----------------------
   0 O :   -0.063232
   1 N :   -0.032050
   2 C :   -0.077888
   3 C :   -0.067139
   4 C :    0.011595
   5 N :   -0.096477
   6 C :    0.014153
   7 H :    0.070491
   8 H :    0.040185
   9 H :    0.039014
  10 H :    0.023060
  11 H :    0.021242
  12 H :    0.053683
  13 H :    0.031912
  14 H :    0.031451

  Mayer bond orders larger than 0.1
B(  0-O ,  1-N ) :   0.9966 B(  0-O ,  7-H ) :   0.9763 B(  1-N ,  2-C ) :   1.9362
B(  2-C ,  3-C ) :   1.0458 B(  2-C ,  6-C ) :   1.0111 B(  3-C ,  4-C ) :   1.0550
B(  3-C ,  8-H ) :   0.8980 B(  3-C ,  9-H ) :   0.9065 B(  4-C ,  5-N ) :   1.0902
B(  4-C , 10-H ) :   0.9423 B(  4-C , 11-H ) :   0.9296 B(  5-N ,  6-C ) :   1.0558
B(  5-N , 12-H ) :   0.9535 B(  6-C , 13-H ) :   0.9370 B(  6-C , 14-H ) :   0.9062

FINAL SINGLE POINT ENERGY      -341.235421823502

DIPOLE MOMENT
-------------
                                X             Y             Z
Electronic contribution:     -1.82628      -0.65888       4.04092
Nuclear contribution   :      1.51709       0.95567      -4.02499
                        -----------------------------------------
Total Dipole Moment    :     -0.30919       0.29679       0.01593
                        -----------------------------------------
Magnitude (a.u.)       :      0.42888
Magnitude (Debye)      :      1.09012

                             ****ORCA TERMINATED NORMALLY****
TOTAL RUN TIME: 0 days 0 hours 0 minutes 7 seconds 276 msec
