                         Program Version 3.0.3 - RELEASE   -
|  1> ! RI PBE def2-SVP def2-SVP/J NBO PAL2
|  2> % maxcore 2000
|  3> % output
|  4>     # printlevel mini
|  5>     print[ P_Basis ] 0
|  6>     print[ P_SCFInfo ] 1
|  7>     print[ P_SCFIterInfo ] 1
|  8>     print[ P_OrbEn ] 0
|  9>     print[ P_Cartesian ] 0
| 10> end
| 11> *xyz 0 1
| 12>  O        2.1526730000    -1.3355560000     0.0768450000
| 13>  N        2.0872880000    -0.1512910000    -0.1704330000
| 14>  C        2.8523600000     0.2716720000    -1.2575660000
| 15>  C        2.8654540000     1.5988470000    -1.6441020000
| 16>  N        3.6847690000     1.6939480000    -2.7085600000
| 17>  C        4.2039620000     0.4570660000    -3.0215230000
| 18>  C        3.7072080000    -0.4516930000    -2.1388940000
| 19>  H        2.3475730000     2.4459490000    -1.2241510000
| 20>  H        3.8886130000     2.5441310000    -3.2037870000
| 21>  H        4.8839580000     0.3393740000    -3.8501710000
| 22>  H        3.9117430000    -1.5087470000    -2.1033570000
| 23> *
| 24>
| 25>                          ****END OF INPUT****
 Total Charge           Charge          ....    0
 Multiplicity           Mult            ....    1
 Number of Electrons    NEL             ....   50
 Basis Dimension        Dim             ....  118

MULLIKEN ATOMIC CHARGES
-----------------------
   0 O :   -0.219536
   1 N :    0.038765
   2 C :   -0.017053
   3 C :    0.066407
   4 N :   -0.040661
   5 C :    0.058490
   6 C :   -0.008540
   7 H :    0.001156
   8 H :    0.126358
   9 H :    0.008188
  10 H :   -0.013575
Sum of atomic charges:   -0.0000000

LOEWDIN ATOMIC CHARGES
----------------------
   0 O :   -0.147433
   1 N :    0.029917
   2 C :   -0.119889
   3 C :    0.014192
   4 N :    0.118773
   5 C :   -0.015234
   6 C :   -0.058893
   7 H :    0.030299
   8 H :    0.089829
   9 H :    0.023935
  10 H :    0.034504

  Mayer bond orders larger than 0.1
B(  0-O ,  1-N ) :   1.6656 B(  1-N ,  2-C ) :   1.2143 B(  2-C ,  3-C ) :   1.3466
B(  2-C ,  6-C ) :   1.2449 B(  3-C ,  4-N ) :   1.2869 B(  3-C ,  7-H ) :   0.9862
B(  4-N ,  5-C ) :   1.1749 B(  4-N ,  8-H ) :   0.9355 B(  5-C ,  6-C ) :   1.4977
B(  5-C ,  9-H ) :   0.9792 B(  6-C , 10-H ) :   1.0194

FINAL SINGLE POINT ENERGY      -338.835527395920

DIPOLE MOMENT
-------------
                                X             Y             Z
Electronic contribution:     -1.70441      -1.03546       2.45130
Nuclear contribution   :      2.59973       2.52634      -3.99768
                        -----------------------------------------
Total Dipole Moment    :      0.89531       1.49088      -1.54637
                        -----------------------------------------
Magnitude (a.u.)       :      2.32714
Magnitude (Debye)      :      5.91512

                             ****ORCA TERMINATED NORMALLY****
TOTAL RUN TIME: 0 days 0 hours 0 minutes 5 seconds 761 msec
