                         Program Version 3.0.3 - RELEASE   -
|  1> ! RI PBE def2-SVP def2-SVP/J NBO PAL2
|  2> % maxcore 2000
|  3> % output
|  4>     # printlevel mini
|  5>     print[ P_Basis ] 0
|  6>     print[ P_SCFInfo ] 1
|  7>     print[ P_SCFIterInfo ] 1
|  8>     print[ P_OrbEn ] 0
|  9>     print[ P_Cartesian ] 0
| 10> end
| 11> *xyz 0 1
| 12>  O        1.0665470000    -0.1430800000     0.3226080000
| 13>  N        2.4535460000    -0.1176800000     0.2392990000
| 14>  C        2.9386340000     0.8456600000     0.8967630000
| 15>  C        2.2415430000     1.8834220000     1.7216910000
| 16>  C        3.3968010000     2.8170140000     2.0731550000
| 17>  O        4.5584700000     2.0059430000     2.0555980000
| 18>  C        4.4178160000     1.1108760000     0.9735930000
| 19>  H        0.8362290000    -0.9132490000    -0.2040490000
| 20>  H        1.8108000000     1.4135000000     2.6109920000
| 21>  H        1.4263610000     2.3607640000     1.1752850000
| 22>  H        3.3192950000     3.2675790000     3.0625470000
| 23>  H        3.4831310000     3.6213330000     1.3279930000
| 24>  H        5.0070790000     0.2148240000     1.1704630000
| 25>  H        4.7728450000     1.5667150000     0.0362700000
| 26> *
| 27>
| 28>                          ****END OF INPUT****
 Total Charge           Charge          ....    0
 Multiplicity           Mult            ....    1
 Number of Electrons    NEL             ....   54
 Basis Dimension        Dim             ....  133

MULLIKEN ATOMIC CHARGES
-----------------------
   0 O :   -0.183397
   1 N :   -0.031271
   2 C :   -0.322727
   3 C :    0.081281
   4 C :    0.178150
   5 O :   -0.355633
   6 C :    0.312067
   7 H :    0.171326
   8 H :    0.043857
   9 H :    0.037276
  10 H :    0.015307
  11 H :    0.006093
  12 H :    0.033945
  13 H :    0.013727
Sum of atomic charges:    0.0000000

LOEWDIN ATOMIC CHARGES
----------------------
   0 O :   -0.058649
   1 N :   -0.026844
   2 C :   -0.076187
   3 C :   -0.062415
   4 C :    0.067742
   5 O :   -0.151961
   6 C :    0.067551
   7 H :    0.073108
   8 H :    0.046786
   9 H :    0.041640
  10 H :    0.021992
  11 H :    0.007120
  12 H :    0.032012
  13 H :    0.018106

  Mayer bond orders larger than 0.1
B(  0-O ,  1-N ) :   1.0016 B(  0-O ,  7-H ) :   0.9755 B(  1-N ,  2-C ) :   1.9360
B(  2-C ,  3-C ) :   1.0415 B(  2-C ,  6-C ) :   1.0229 B(  3-C ,  4-C ) :   1.0879
B(  3-C ,  8-H ) :   0.8969 B(  3-C ,  9-H ) :   0.9080 B(  4-C ,  5-O ) :   1.0091
B(  4-C , 10-H ) :   0.9410 B(  4-C , 11-H ) :   0.9230 B(  5-O ,  6-C ) :   1.0155
B(  6-C , 12-H ) :   0.9332 B(  6-C , 13-H ) :   0.9027

FINAL SINGLE POINT ENERGY      -361.072928896204

DIPOLE MOMENT
-------------
                                X             Y             Z
Electronic contribution:     -0.30624      -2.98432      -1.08427
Nuclear contribution   :     -0.19753       3.02648       0.89728
                        -----------------------------------------
Total Dipole Moment    :     -0.50376       0.04217      -0.18699
                        -----------------------------------------
Magnitude (a.u.)       :      0.53900
Magnitude (Debye)      :      1.37003

                             ****ORCA TERMINATED NORMALLY****
TOTAL RUN TIME: 0 days 0 hours 0 minutes 6 seconds 446 msec
