                         Program Version 3.0.3 - RELEASE   -
|  1> ! RI PBE def2-SVP def2-SVP/J NBO PAL2
|  2> % maxcore 2000
|  3> % output
|  4>     # printlevel mini
|  5>     print[ P_Basis ] 0
|  6>     print[ P_SCFInfo ] 1
|  7>     print[ P_SCFIterInfo ] 1
|  8>     print[ P_OrbEn ] 0
|  9>     print[ P_Cartesian ] 0
| 10> end
| 11> *xyz 0 1
| 12>  O        1.0205620000     0.2663140000     0.0781370000
| 13>  N        2.4156290000     0.2207750000     0.0096840000
| 14>  C        2.9297070000     0.3806310000     1.1662860000
| 15>  C        4.4365310000     0.3694500000     1.3467920000
| 16>  N        4.5755030000     0.5792590000     2.7742290000
| 17>  C        3.3553590000     0.6967280000     3.3534210000
| 18>  C        2.3381840000     0.5900150000     2.4670190000
| 19>  H        0.7653840000     0.1358400000    -0.8380460000
| 20>  H        4.9143970000     1.1683080000     0.7716500000
| 21>  H        4.8700090000    -0.5852170000     1.0337050000
| 22>  H        5.4494280000     0.6293050000     3.2574270000
| 23>  H        3.2842540000     0.8581410000     4.4214250000
| 24>  H        1.2852620000     0.6484610000     2.6796700000
| 25> *
| 26>
| 27>                          ****END OF INPUT****
 Total Charge           Charge          ....    0
 Multiplicity           Mult            ....    1
 Number of Electrons    NEL             ....   52
 Basis Dimension        Dim             ....  128

MULLIKEN ATOMIC CHARGES
-----------------------
   0 O :   -0.192076
   1 N :   -0.070752
   2 C :   -0.194464
   3 C :    0.247472
   4 N :   -0.194267
   5 C :    0.100515
   6 C :   -0.029371
   7 H :    0.162900
   8 H :    0.042488
   9 H :    0.037575
  10 H :    0.111136
  11 H :    0.002522
  12 H :   -0.023680
Sum of atomic charges:   -0.0000000

LOEWDIN ATOMIC CHARGES
----------------------
   0 O :   -0.070293
   1 N :   -0.066345
   2 C :   -0.078363
   3 C :    0.044421
   4 N :    0.005401
   5 C :    0.033360
   6 C :   -0.130549
   7 H :    0.066931
   8 H :    0.035702
   9 H :    0.034827
  10 H :    0.071549
  11 H :    0.024520
  12 H :    0.028839

  Mayer bond orders larger than 0.1
B(  0-O ,  1-N ) :   0.9862 B(  0-O ,  7-H ) :   0.9799 B(  1-N ,  2-C ) :   1.8210
B(  2-C ,  3-C ) :   1.0131 B(  2-C ,  6-C ) :   1.1381 B(  3-C ,  4-N ) :   0.9876
B(  3-C ,  8-H ) :   0.9212 B(  3-C ,  9-H ) :   0.9204 B(  4-N ,  5-C ) :   1.2253
B(  4-N ,  6-C ) :   0.1118 B(  4-N , 10-H ) :   0.9459 B(  5-C ,  6-C ) :   1.5101
B(  5-C , 11-H ) :   0.9657 B(  6-C , 12-H ) :   1.0139

FINAL SINGLE POINT ENERGY      -340.035845959945

DIPOLE MOMENT
-------------
                                X             Y             Z
Electronic contribution:     -1.62914      -0.14660      -1.29359
Nuclear contribution   :      2.52836       0.21915       1.89483
                        -----------------------------------------
Total Dipole Moment    :      0.89923       0.07255       0.60124
                        -----------------------------------------
Magnitude (a.u.)       :      1.08414
Magnitude (Debye)      :      2.75566

                             ****ORCA TERMINATED NORMALLY****
TOTAL RUN TIME: 0 days 0 hours 0 minutes 5 seconds 508 msec
