                         Program Version 3.0.3 - RELEASE   -
|  1> ! RI PBE def2-SVP def2-SVP/J NBO PAL2
|  2> % maxcore 2000
|  3> % output
|  4>     # printlevel mini
|  5>     print[ P_Basis ] 0
|  6>     print[ P_SCFInfo ] 1
|  7>     print[ P_SCFIterInfo ] 1
|  8>     print[ P_OrbEn ] 0
|  9>     print[ P_Cartesian ] 0
| 10> end
| 11> *xyz 0 1
| 12>  O        1.0267680000    -0.2121490000     0.0882270000
| 13>  N        2.4127160000    -0.1032170000     0.1617380000
| 14>  C        2.9802220000    -0.9684330000    -0.5784030000
| 15>  C        4.4808540000    -1.0650910000    -0.6805270000
| 16>  O        4.7220670000    -2.1443610000    -1.5977530000
| 17>  C        3.5230350000    -2.6157740000    -1.9805360000
| 18>  C        2.4591140000    -2.0013230000    -1.4457920000
| 19>  H        0.7302160000     0.4830740000     0.6808260000
| 20>  H        4.9554080000    -1.3103710000     0.2717390000
| 21>  H        4.9371460000    -0.1600550000    -1.0865710000
| 22>  H        3.5650020000    -3.4405400000    -2.6794370000
| 23>  H        1.4212330000    -2.2256690000    -1.6216190000
| 24> *
| 25>
| 26>                          ****END OF INPUT****
 Total Charge           Charge          ....    0
 Multiplicity           Mult            ....    1
 Number of Electrons    NEL             ....   52
 Basis Dimension        Dim             ....  123

MULLIKEN ATOMIC CHARGES
-----------------------
   0 O :   -0.184990
   1 N :   -0.053542
   2 C :   -0.206355
   3 C :    0.281389
   4 O :   -0.268075
   5 C :    0.143156
   6 C :    0.003252
   7 H :    0.168554
   8 H :    0.053844
   9 H :    0.052672
  10 H :    0.019501
  11 H :   -0.009406
Sum of atomic charges:   -0.0000000

LOEWDIN ATOMIC CHARGES
----------------------
   0 O :   -0.061935
   1 N :   -0.051734
   2 C :   -0.087660
   3 C :    0.095687
   4 O :   -0.063452
   5 C :    0.069644
   6 C :   -0.112162
   7 H :    0.071305
   8 H :    0.038633
   9 H :    0.038523
  10 H :    0.026196
  11 H :    0.036955

  Mayer bond orders larger than 0.1
B(  0-O ,  1-N ) :   0.9935 B(  0-O ,  7-H ) :   0.9775 B(  1-N ,  2-C ) :   1.8324
B(  2-C ,  3-C ) :   1.0373 B(  2-C ,  6-C ) :   1.0948 B(  3-C ,  4-O ) :   0.9545
B(  3-C ,  8-H ) :   0.9272 B(  3-C ,  9-H ) :   0.9264 B(  4-O ,  5-C ) :   1.1625
B(  5-C ,  6-C ) :   1.5649 B(  5-C , 10-H ) :   0.9776 B(  6-C , 11-H ) :   1.0095

FINAL SINGLE POINT ENERGY      -359.870871774864

DIPOLE MOMENT
-------------
                                X             Y             Z
Electronic contribution:     -0.31053       0.22138       0.19385
Nuclear contribution   :      0.29236      -0.28081      -0.24131
                        -----------------------------------------
Total Dipole Moment    :     -0.01817      -0.05943      -0.04745
                        -----------------------------------------
Magnitude (a.u.)       :      0.07819
Magnitude (Debye)      :      0.19875

                             ****ORCA TERMINATED NORMALLY****
TOTAL RUN TIME: 0 days 0 hours 0 minutes 5 seconds 754 msec
