                         Program Version 3.0.3 - RELEASE   -
|  1> ! RI PBE def2-SVP def2-SVP/J NBO PAL2
|  2> % maxcore 2000
|  3> % output
|  4>     # printlevel mini
|  5>     print[ P_Basis ] 0
|  6>     print[ P_SCFInfo ] 1
|  7>     print[ P_SCFIterInfo ] 1
|  8>     print[ P_OrbEn ] 0
|  9>     print[ P_Cartesian ] 0
| 10> end
| 11> *xyz 0 1
| 12>  O        1.0497020000    -0.1335200000    -0.0972510000
| 13>  N        2.4413000000     0.0064070000     0.0513290000
| 14>  C        2.9330990000     0.6391390000    -0.9451610000
| 15>  N        4.2709510000     0.9184740000    -1.0627720000
| 16>  C        4.5745220000     1.6368550000    -2.2671660000
| 17>  C        3.2254060000     1.7712860000    -2.8970250000
| 18>  C        2.2921690000     1.1996020000    -2.1373960000
| 19>  H        0.8124420000    -0.6138100000     0.6984130000
| 20>  H        4.9438220000     0.6431350000    -0.3738170000
| 21>  H        5.2691400000     1.0918030000    -2.9234780000
| 22>  H        5.0243300000     2.6218120000    -2.0725970000
| 23>  H        3.0710240000     2.2726110000    -3.8429600000
| 24>  H        1.2318930000     1.1330160000    -2.3226190000
| 25> *
| 26>
| 27>                          ****END OF INPUT****
 Total Charge           Charge          ....    0
 Multiplicity           Mult            ....    1
 Number of Electrons    NEL             ....   52
 Basis Dimension        Dim             ....  128

MULLIKEN ATOMIC CHARGES
-----------------------
   0 O :   -0.205329
   1 N :   -0.070721
   2 C :    0.021865
   3 N :   -0.205202
   4 C :    0.210237
   5 C :   -0.099040
   6 C :    0.015067
   7 H :    0.163968
   8 H :    0.107594
   9 H :    0.034682
  10 H :    0.032785
  11 H :    0.003130
  12 H :   -0.009037
Sum of atomic charges:   -0.0000000

LOEWDIN ATOMIC CHARGES
----------------------
   0 O :   -0.081752
   1 N :   -0.100225
   2 C :   -0.044303
   3 N :   -0.011249
   4 C :    0.033577
   5 C :   -0.019890
   6 C :   -0.034937
   7 H :    0.067417
   8 H :    0.070784
   9 H :    0.029579
  10 H :    0.029414
  11 H :    0.027330
  12 H :    0.034255

  Mayer bond orders larger than 0.1
B(  0-O ,  1-N ) :   0.9638 B(  0-O ,  7-H ) :   0.9801 B(  1-N ,  2-C ) :   1.7811
B(  2-C ,  3-N ) :   1.1520 B(  2-C ,  6-C ) :   1.0227 B(  3-N ,  4-C ) :   1.0366
B(  3-N ,  8-H ) :   0.9370 B(  4-C ,  5-C ) :   1.0343 B(  4-C ,  9-H ) :   0.9096
B(  4-C , 10-H ) :   0.9090 B(  5-C ,  6-C ) :   1.7585 B(  5-C , 11-H ) :   0.9800
B(  6-C , 12-H ) :   1.0152

FINAL SINGLE POINT ENERGY      -340.036039188942

DIPOLE MOMENT
-------------
                                X             Y             Z
Electronic contribution:     -1.95755      -1.73879       2.55512
Nuclear contribution   :      2.55932       2.03825      -2.92870
                        -----------------------------------------
Total Dipole Moment    :      0.60177       0.29946      -0.37358
                        -----------------------------------------
Magnitude (a.u.)       :      0.76900
Magnitude (Debye)      :      1.95465

                             ****ORCA TERMINATED NORMALLY****
TOTAL RUN TIME: 0 days 0 hours 0 minutes 6 seconds 322 msec
