                         Program Version 3.0.3 - RELEASE   -
|  1> ! RI PBE def2-SVP def2-SVP/J NBO PAL2
|  2> % maxcore 2000
|  3> % output
|  4>     # printlevel mini
|  5>     print[ P_Basis ] 0
|  6>     print[ P_SCFInfo ] 1
|  7>     print[ P_SCFIterInfo ] 1
|  8>     print[ P_OrbEn ] 0
|  9>     print[ P_Cartesian ] 0
| 10> end
| 11> *xyz 0 1
| 12>  O        1.0861450000    -0.1461630000    -0.0979230000
| 13>  N        2.4509420000     0.0555020000     0.1226680000
| 14>  C        2.8950280000     0.9564650000    -0.6547870000
| 15>  O        4.2095530000     1.2901330000    -0.5835790000
| 16>  C        4.4757280000     2.3092890000    -1.5363430000
| 17>  C        3.1698110000     2.5649880000    -2.2040940000
| 18>  C        2.2469290000     1.7642760000    -1.6781480000
| 19>  H        0.8793340000    -0.8348630000     0.5378160000
| 20>  H        5.2472020000     1.9582890000    -2.2326990000
| 21>  H        4.8678370000     3.1929760000    -1.0180300000
| 22>  H        3.0337990000     3.2959780000    -2.9895980000
| 23>  H        1.2001940000     1.6853290000    -1.9245530000
| 24> *
| 25>
| 26>                          ****END OF INPUT****
 Total Charge           Charge          ....    0
 Multiplicity           Mult            ....    1
 Number of Electrons    NEL             ....   52
 Basis Dimension        Dim             ....  123

MULLIKEN ATOMIC CHARGES
-----------------------
   0 O :   -0.197584
   1 N :   -0.029783
   2 C :    0.053466
   3 O :   -0.264378
   4 C :    0.256399
   5 C :   -0.109271
   6 C :    0.013264
   7 H :    0.173120
   8 H :    0.046029
   9 H :    0.043674
  10 H :    0.015123
  11 H :   -0.000059
Sum of atomic charges:   -0.0000000

LOEWDIN ATOMIC CHARGES
----------------------
   0 O :   -0.066846
   1 N :   -0.061027
   2 C :   -0.026261
   3 O :   -0.069857
   4 C :    0.083329
   5 C :   -0.025997
   6 C :   -0.043315
   7 H :    0.073682
   8 H :    0.033082
   9 H :    0.032650
  10 H :    0.032440
  11 H :    0.038118

  Mayer bond orders larger than 0.1
B(  0-O ,  1-N ) :   0.9773 B(  0-O ,  7-H ) :   0.9780 B(  1-N ,  2-C ) :   1.8180
B(  2-C ,  3-O ) :   1.1167 B(  2-C ,  6-C ) :   1.0300 B(  3-O ,  4-C ) :   0.9936
B(  4-C ,  5-C ) :   1.0437 B(  4-C ,  8-H ) :   0.9185 B(  4-C ,  9-H ) :   0.9185
B(  5-C ,  6-C ) :   1.7364 B(  5-C , 10-H ) :   0.9760 B(  6-C , 11-H ) :   1.0111

FINAL SINGLE POINT ENERGY      -359.869527182770

DIPOLE MOMENT
-------------
                                X             Y             Z
Electronic contribution:     -0.73947      -2.41620       2.21846
Nuclear contribution   :      0.64293       3.03229      -2.88102
                        -----------------------------------------
Total Dipole Moment    :     -0.09654       0.61608      -0.66256
                        -----------------------------------------
Magnitude (a.u.)       :      0.90987
Magnitude (Debye)      :      2.31270

                             ****ORCA TERMINATED NORMALLY****
TOTAL RUN TIME: 0 days 0 hours 0 minutes 6 seconds 495 msec
