                         Program Version 3.0.3 - RELEASE   -
|  1> ! RI PBE def2-SVP def2-SVP/J NBO PAL2
|  2> % maxcore 2000
|  3> % output
|  4>     # printlevel mini
|  5>     print[ P_Basis ] 0
|  6>     print[ P_SCFInfo ] 1
|  7>     print[ P_SCFIterInfo ] 1
|  8>     print[ P_OrbEn ] 0
|  9>     print[ P_Cartesian ] 0
| 10> end
| 11> *xyz 0 1
| 12>  O        0.8693090000    -0.6903740000     1.3935760000
| 13>  N        2.2137530000    -0.9500880000     1.6008330000
| 14>  C        2.9460490000    -0.3043730000     0.7933370000
| 15>  C        4.4053830000    -0.4729110000     0.7915780000
| 16>  C        5.0917410000    -1.3780620000     1.7789910000
| 17>  C        5.0052870000    -1.7765400000     0.3460550000
| 18>  O        6.1281220000    -1.6867960000    -0.4669070000
| 19>  H        0.4399040000    -1.2126220000     2.0763400000
| 20>  H        2.4948660000     0.3699640000     0.0627040000
| 21>  H        4.9686450000     0.3947720000     0.4675040000
| 22>  H        4.4663440000    -1.8925770000     2.4968160000
| 23>  H        6.0581530000    -1.0461050000     2.1376870000
| 24>  H        4.2965610000    -2.5594570000     0.0844140000
| 25>  H        6.7335950000    -2.3927420000    -0.2236090000
| 26> *
| 27>
| 28>                          ****END OF INPUT****
 Total Charge           Charge          ....    0
 Multiplicity           Mult            ....    1
 Number of Electrons    NEL             ....   54
 Basis Dimension        Dim             ....  133

MULLIKEN ATOMIC CHARGES
-----------------------
   0 O :   -0.176211
   1 N :   -0.054463
   2 C :    0.015822
   3 C :   -0.065097
   4 C :    0.020605
   5 C :    0.045839
   6 O :   -0.234604
   7 H :    0.169834
   8 H :   -0.001975
   9 H :    0.030149
  10 H :    0.041346
  11 H :    0.025892
  12 H :    0.019918
  13 H :    0.162946
Sum of atomic charges:    0.0000000

LOEWDIN ATOMIC CHARGES
----------------------
   0 O :   -0.055097
   1 N :   -0.025450
   2 C :   -0.030321
   3 C :   -0.058146
   4 C :   -0.049524
   5 C :    0.046585
   6 O :   -0.096373
   7 H :    0.072511
   8 H :    0.009285
   9 H :    0.038418
  10 H :    0.030463
  11 H :    0.030499
  12 H :    0.010576
  13 H :    0.076575

  Mayer bond orders larger than 0.1
B(  0-O ,  1-N ) :   0.9876 B(  0-O ,  2-C ) :   0.1107 B(  0-O ,  7-H ) :   0.9764
B(  1-N ,  2-C ) :   1.8950 B(  2-C ,  3-C ) :   1.0533 B(  2-C ,  8-H ) :   0.9473
B(  3-C ,  4-C ) :   0.9868 B(  3-C ,  5-C ) :   0.9049 B(  3-C ,  9-H ) :   0.9276
B(  4-C ,  5-C ) :   1.0084 B(  4-C , 10-H ) :   0.9193 B(  4-C , 11-H ) :   0.9263
B(  5-C ,  6-O ) :   1.1355 B(  5-C , 12-H ) :   0.9391 B(  6-O , 13-H ) :   0.9789

FINAL SINGLE POINT ENERGY      -361.047411004123

DIPOLE MOMENT
-------------
                                X             Y             Z
Electronic contribution:     -2.60846       0.41216      -0.53244
Nuclear contribution   :      2.79249      -0.87821       0.87558
                        -----------------------------------------
Total Dipole Moment    :      0.18403      -0.46604       0.34315
                        -----------------------------------------
Magnitude (a.u.)       :      0.60730
Magnitude (Debye)      :      1.54363

                             ****ORCA TERMINATED NORMALLY****
TOTAL RUN TIME: 0 days 0 hours 0 minutes 6 seconds 498 msec
