                         Program Version 3.0.3 - RELEASE   -
|  1> ! RI PBE def2-SVP def2-SVP/J NBO PAL2
|  2> % maxcore 2000
|  3> % output
|  4>     # printlevel mini
|  5>     print[ P_Basis ] 0
|  6>     print[ P_SCFInfo ] 1
|  7>     print[ P_SCFIterInfo ] 1
|  8>     print[ P_OrbEn ] 0
|  9>     print[ P_Cartesian ] 0
| 10> end
| 11> *xyz 0 1
| 12>  O        0.9775750000    -0.2018110000    -0.7860030000
| 13>  N        2.3498260000    -0.3528400000    -0.6740840000
| 14>  C        2.9706420000     0.6870970000    -1.0446540000
| 15>  C        4.4474960000     0.7358120000    -1.0044550000
| 16>  C        5.2121500000     1.1610140000    -2.2820520000
| 17>  C        6.2028750000     1.9267300000    -1.3872100000
| 18>  C        5.1325050000     1.9215070000    -0.2813620000
| 19>  H        0.6412800000    -1.0476570000    -0.4778250000
| 20>  H        2.4177180000     1.5620830000    -1.3990680000
| 21>  H        4.8265060000    -0.2165100000    -0.6273370000
| 22>  H        4.6106150000     1.8454450000    -2.8862880000
| 23>  H        5.5920620000     0.3673360000    -2.9266590000
| 24>  H        6.5691750000     2.8915710000    -1.7393970000
| 25>  H        7.0594760000     1.3055580000    -1.1169560000
| 26>  H        4.5086780000     2.8182490000    -0.3269350000
| 27>  H        5.4456200000     1.7655160000     0.7517840000
| 28> *
| 29>
| 30>                          ****END OF INPUT****
 Total Charge           Charge          ....    0
 Multiplicity           Mult            ....    1
 Number of Electrons    NEL             ....   54
 Basis Dimension        Dim             ....  143

MULLIKEN ATOMIC CHARGES
-----------------------
   0 O :   -0.177783
   1 N :   -0.044532
   2 C :    0.036432
   3 C :   -0.147860
   4 C :    0.042756
   5 C :   -0.006310
   6 C :    0.049678
   7 H :    0.169456
   8 H :   -0.013895
   9 H :    0.006509
  10 H :    0.010721
  11 H :    0.021311
  12 H :    0.008268
  13 H :    0.016829
  14 H :    0.008781
  15 H :    0.019640
Sum of atomic charges:   -0.0000000

LOEWDIN ATOMIC CHARGES
----------------------
   0 O :   -0.058110
   1 N :   -0.015947
   2 C :   -0.036454
   3 C :   -0.043169
   4 C :   -0.023287
   5 C :   -0.033625
   6 C :   -0.022274
   7 H :    0.072814
   8 H :    0.001975
   9 H :    0.032067
  10 H :    0.023834
  11 H :    0.018943
  12 H :    0.016244
  13 H :    0.025017
  14 H :    0.023295
  15 H :    0.018677

  Mayer bond orders larger than 0.1
B(  0-O ,  1-N ) :   0.9873 B(  0-O ,  2-C ) :   0.1142 B(  0-O ,  7-H ) :   0.9753
B(  1-N ,  2-C ) :   1.8947 B(  2-C ,  3-C ) :   1.0374 B(  2-C ,  8-H ) :   0.9290
B(  3-C ,  4-C ) :   1.0473 B(  3-C ,  6-C ) :   1.0487 B(  3-C ,  9-H ) :   0.9078
B(  4-C ,  5-C ) :   1.1147 B(  4-C , 10-H ) :   0.9252 B(  4-C , 11-H ) :   0.9344
B(  5-C ,  6-C ) :   1.1114 B(  5-C , 12-H ) :   0.9354 B(  5-C , 13-H ) :   0.9339
B(  6-C , 14-H ) :   0.9259 B(  6-C , 15-H ) :   0.9348

FINAL SINGLE POINT ENERGY      -325.192761957091

DIPOLE MOMENT
-------------
                                X             Y             Z
Electronic contribution:     -6.70454      -3.70377       1.14032
Nuclear contribution   :      6.81394       3.71833      -1.14198
                        -----------------------------------------
Total Dipole Moment    :      0.10941       0.01456      -0.00166
                        -----------------------------------------
Magnitude (a.u.)       :      0.11038
Magnitude (Debye)      :      0.28057

                             ****ORCA TERMINATED NORMALLY****
TOTAL RUN TIME: 0 days 0 hours 0 minutes 6 seconds 319 msec
