                         Program Version 3.0.3 - RELEASE   -
|  1> ! RI PBE def2-SVP def2-SVP/J NBO PAL2
|  2> % maxcore 2000
|  3> % output
|  4>     # printlevel mini
|  5>     print[ P_Basis ] 0
|  6>     print[ P_SCFInfo ] 1
|  7>     print[ P_SCFIterInfo ] 1
|  8>     print[ P_OrbEn ] 0
|  9>     print[ P_Cartesian ] 0
| 10> end
| 11> *xyz 0 1
| 12>  O        1.0981470000    -0.7694460000     0.2420540000
| 13>  N        2.4498790000    -0.9655890000     0.0193940000
| 14>  C        3.1272810000    -0.8349380000     1.0796280000
| 15>  C        4.6136790000    -0.9687300000     1.0839840000
| 16>  C        5.2893520000    -0.9906890000    -0.2966480000
| 17>  C        5.5959720000     0.4958110000    -0.0606060000
| 18>  N        5.3166700000     0.3040730000     1.3749020000
| 19>  H        0.7118610000    -0.9080200000    -0.6271640000
| 20>  H        2.6294400000    -0.5982350000     2.0246430000
| 21>  H        4.8929170000    -1.7701620000     1.7780730000
| 22>  H        4.6528420000    -1.2431020000    -1.1408550000
| 23>  H        6.1850850000    -1.6105490000    -0.3006380000
| 24>  H        4.8841670000     1.1512360000    -0.5753490000
| 25>  H        6.6115910000     0.8385130000    -0.2721350000
| 26>  H        4.7487970000     1.0213280000     1.8109270000
| 27> *
| 28>
| 29>                          ****END OF INPUT****
 Total Charge           Charge          ....    0
 Multiplicity           Mult            ....    1
 Number of Electrons    NEL             ....   54
 Basis Dimension        Dim             ....  138

MULLIKEN ATOMIC CHARGES
-----------------------
   0 O :   -0.173064
   1 N :   -0.041294
   2 C :   -0.011695
   3 C :   -0.002622
   4 C :    0.011172
   5 C :    0.113986
   6 N :   -0.248296
   7 H :    0.170920
   8 H :    0.002148
   9 H :    0.021097
  10 H :    0.026602
  11 H :    0.018845
  12 H :    0.012407
  13 H :    0.009348
  14 H :    0.090447
Sum of atomic charges:   -0.0000000

LOEWDIN ATOMIC CHARGES
----------------------
   0 O :   -0.053690
   1 N :   -0.013713
   2 C :   -0.048244
   3 C :    0.006302
   4 C :   -0.032996
   5 C :    0.029277
   6 N :   -0.099826
   7 H :    0.073407
   8 H :    0.005452
   9 H :    0.020617
  10 H :    0.021700
  11 H :    0.029644
  12 H :    0.008338
  13 H :    0.011344
  14 H :    0.042387

  Mayer bond orders larger than 0.1
B(  0-O ,  1-N ) :   0.9873 B(  0-O ,  2-C ) :   0.1115 B(  0-O ,  7-H ) :   0.9753
B(  1-N ,  2-C ) :   1.9193 B(  2-C ,  3-C ) :   0.9861 B(  2-C ,  8-H ) :   0.9361
B(  3-C ,  4-C ) :   1.1175 B(  3-C ,  6-N ) :   1.0561 B(  3-C ,  9-H ) :   0.8959
B(  4-C ,  5-C ) :   1.1240 B(  4-C , 10-H ) :   0.9228 B(  4-C , 11-H ) :   0.9076
B(  5-C ,  6-N ) :   1.0438 B(  5-C , 12-H ) :   0.9313 B(  5-C , 13-H ) :   0.9383
B(  6-N , 14-H ) :   0.9469

FINAL SINGLE POINT ENERGY      -341.200604732236

DIPOLE MOMENT
-------------
                                X             Y             Z
Electronic contribution:     -4.53634      -0.90411       0.77859
Nuclear contribution   :      4.18141       0.99498      -1.05492
                        -----------------------------------------
Total Dipole Moment    :     -0.35493       0.09087      -0.27633
                        -----------------------------------------
Magnitude (a.u.)       :      0.45890
Magnitude (Debye)      :      1.16644

                             ****ORCA TERMINATED NORMALLY****
TOTAL RUN TIME: 0 days 0 hours 0 minutes 6 seconds 977 msec
