                         Program Version 3.0.3 - RELEASE   -
|  1> ! RI PBE def2-SVP def2-SVP/J NBO PAL2
|  2> % maxcore 2000
|  3> % output
|  4>     # printlevel mini
|  5>     print[ P_Basis ] 0
|  6>     print[ P_SCFInfo ] 1
|  7>     print[ P_SCFIterInfo ] 1
|  8>     print[ P_OrbEn ] 0
|  9>     print[ P_Cartesian ] 0
| 10> end
| 11> *xyz 0 1
| 12>  O        0.8067510000     0.0898110000    -1.2772330000
| 13>  N        2.1281780000    -0.2162440000    -1.5159100000
| 14>  C        2.9130330000     0.6638320000    -1.0552120000
| 15>  C        4.3726730000     0.5053550000    -1.2567940000
| 16>  C        5.1443980000     1.6878750000    -1.8683030000
| 17>  C        6.0142400000     1.5785700000    -0.6166630000
| 18>  O        5.1148060000     0.6263470000    -0.0278360000
| 19>  H        0.3358210000    -0.6583520000    -1.6553540000
| 20>  H        2.5408870000     1.5379240000    -0.5168870000
| 21>  H        4.5647870000    -0.4536780000    -1.7496640000
| 22>  H        4.5590750000     2.6060620000    -1.9212580000
| 23>  H        5.6215570000     1.5044680000    -2.8292620000
| 24>  H        6.1167200000     2.4772470000    -0.0028850000
| 25>  H        7.0052830000     1.1427020000    -0.7844300000
| 26> *
| 27>
| 28>                          ****END OF INPUT****
 Total Charge           Charge          ....    0
 Multiplicity           Mult            ....    1
 Number of Electrons    NEL             ....   54
 Basis Dimension        Dim             ....  133

MULLIKEN ATOMIC CHARGES
-----------------------
   0 O :   -0.166240
   1 N :   -0.038577
   2 C :    0.028212
   3 C :    0.111265
   4 C :   -0.018406
   5 C :    0.183373
   6 O :   -0.349921
   7 H :    0.173852
   8 H :   -0.005742
   9 H :    0.000843
  10 H :    0.016188
  11 H :    0.029858
  12 H :    0.020804
  13 H :    0.014492
Sum of atomic charges:   -0.0000000

LOEWDIN ATOMIC CHARGES
----------------------
   0 O :   -0.045652
   1 N :   -0.004324
   2 C :   -0.044417
   3 C :    0.059047
   4 C :   -0.043715
   5 C :    0.082972
   6 O :   -0.178517
   7 H :    0.076355
   8 H :    0.006992
   9 H :    0.015664
  10 H :    0.027513
  11 H :    0.026914
  12 H :    0.011655
  13 H :    0.009515

  Mayer bond orders larger than 0.1
B(  0-O ,  1-N ) :   0.9994 B(  0-O ,  2-C ) :   0.1206 B(  0-O ,  7-H ) :   0.9740
B(  1-N ,  2-C ) :   1.8759 B(  2-C ,  3-C ) :   1.0244 B(  2-C ,  8-H ) :   0.9305
B(  3-C ,  4-C ) :   1.0717 B(  3-C ,  6-O ) :   1.0187 B(  3-C ,  9-H ) :   0.9048
B(  4-C ,  5-C ) :   1.1039 B(  4-C , 10-H ) :   0.9267 B(  4-C , 11-H ) :   0.9425
B(  5-C ,  6-O ) :   1.0248 B(  5-C , 12-H ) :   0.9439 B(  5-C , 13-H ) :   0.9355

FINAL SINGLE POINT ENERGY      -361.041914564772

DIPOLE MOMENT
-------------
                                X             Y             Z
Electronic contribution:     -4.35498      -2.80175       1.15299
Nuclear contribution   :      4.31920       3.09518      -1.76737
                        -----------------------------------------
Total Dipole Moment    :     -0.03577       0.29343      -0.61438
                        -----------------------------------------
Magnitude (a.u.)       :      0.68180
Magnitude (Debye)      :      1.73299

                             ****ORCA TERMINATED NORMALLY****
TOTAL RUN TIME: 0 days 0 hours 0 minutes 6 seconds 473 msec
