                         Program Version 3.0.3 - RELEASE   -
|  1> ! RI PBE def2-SVP def2-SVP/J NBO PAL2
|  2> % maxcore 2000
|  3> % output
|  4>     # printlevel mini
|  5>     print[ P_Basis ] 0
|  6>     print[ P_SCFInfo ] 1
|  7>     print[ P_SCFIterInfo ] 1
|  8>     print[ P_OrbEn ] 0
|  9>     print[ P_Cartesian ] 0
| 10> end
| 11> *xyz 0 1
| 12>  O        0.8897130000     0.3008010000     0.1519900000
| 13>  N        2.2510230000     0.3093200000     0.3945020000
| 14>  C        2.9002860000     0.7997050000    -0.5765250000
| 15>  C        4.3721220000     0.8977730000    -0.5126250000
| 16>  C        5.2040340000     0.3537320000    -1.6952320000
| 17>  N        6.0874550000     1.5210520000    -1.5715270000
| 18>  C        5.0403200000     2.2507420000    -0.8439210000
| 19>  H        0.5289340000    -0.0889790000     0.9530440000
| 20>  H        2.3751910000     1.1539660000    -1.4679380000
| 21>  H        4.7275710000     0.5016580000     0.4385260000
| 22>  H        4.6129450000     0.3296920000    -2.6216450000
| 23>  H        5.6905070000    -0.6152690000    -1.5597390000
| 24>  H        6.3932220000     1.9375940000    -2.4409920000
| 25>  H        4.3937020000     2.8699310000    -1.4816320000
| 26>  H        5.3910940000     2.8537710000    -0.0029070000
| 27> *
| 28>
| 29>                          ****END OF INPUT****
 Total Charge           Charge          ....    0
 Multiplicity           Mult            ....    1
 Number of Electrons    NEL             ....   54
 Basis Dimension        Dim             ....  138

MULLIKEN ATOMIC CHARGES
-----------------------
   0 O :   -0.175658
   1 N :   -0.041201
   2 C :    0.029262
   3 C :   -0.183956
   4 C :    0.182424
   5 N :   -0.279557
   6 C :    0.171180
   7 H :    0.171045
   8 H :   -0.012019
   9 H :    0.017259
  10 H :   -0.006489
  11 H :    0.016731
  12 H :    0.094924
  13 H :   -0.004501
  14 H :    0.020555
Sum of atomic charges:   -0.0000000

LOEWDIN ATOMIC CHARGES
----------------------
   0 O :   -0.054990
   1 N :   -0.012462
   2 C :   -0.037582
   3 C :   -0.047395
   4 C :    0.038762
   5 N :   -0.114306
   6 C :    0.036588
   7 H :    0.073905
   8 H :    0.001448
   9 H :    0.036019
  10 H :    0.003143
  11 H :    0.013026
  12 H :    0.046645
  13 H :    0.003682
  14 H :    0.013516

  Mayer bond orders larger than 0.1
B(  0-O ,  1-N ) :   0.9915 B(  0-O ,  2-C ) :   0.1152 B(  0-O ,  7-H ) :   0.9751
B(  1-N ,  2-C ) :   1.8869 B(  2-C ,  3-C ) :   1.0272 B(  2-C ,  8-H ) :   0.9310
B(  3-C ,  4-C ) :   1.0358 B(  3-C ,  6-C ) :   1.0348 B(  3-C ,  9-H ) :   0.8989
B(  4-C ,  5-N ) :   1.0465 B(  4-C , 10-H ) :   0.9280 B(  4-C , 11-H ) :   0.9347
B(  5-N ,  6-C ) :   1.0480 B(  5-N , 12-H ) :   0.9428 B(  6-C , 13-H ) :   0.9261
B(  6-C , 14-H ) :   0.9355

FINAL SINGLE POINT ENERGY      -341.200492078681

DIPOLE MOMENT
-------------
                                X             Y             Z
Electronic contribution:     -4.04931      -1.45260       2.45436
Nuclear contribution   :      3.79428       1.54875      -2.72579
                        -----------------------------------------
Total Dipole Moment    :     -0.25503       0.09615      -0.27142
                        -----------------------------------------
Magnitude (a.u.)       :      0.38465
Magnitude (Debye)      :      0.97771

                             ****ORCA TERMINATED NORMALLY****
TOTAL RUN TIME: 0 days 0 hours 0 minutes 6 seconds 434 msec
