                         Program Version 3.0.3 - RELEASE   -
|  1> ! RI PBE def2-SVP def2-SVP/J NBO PAL2
|  2> % maxcore 2000
|  3> % output
|  4>     # printlevel mini
|  5>     print[ P_Basis ] 0
|  6>     print[ P_SCFInfo ] 1
|  7>     print[ P_SCFIterInfo ] 1
|  8>     print[ P_OrbEn ] 0
|  9>     print[ P_Cartesian ] 0
| 10> end
| 11> *xyz 0 1
| 12>  O        0.6928180000    -0.4215900000    -1.5345310000
| 13>  N        2.0325750000    -0.6514190000    -1.7768640000
| 14>  C        2.7734610000    -0.0680520000    -0.9310440000
| 15>  C        4.2427680000    -0.1947110000    -1.0238530000
| 16>  C        5.0826880000     1.0938440000    -0.9459800000
| 17>  O        5.8725390000     0.5750610000     0.1287600000
| 18>  C        5.0156500000    -0.5640860000     0.2560410000
| 19>  H        0.2562620000    -0.9127270000    -2.2361480000
| 20>  H        2.3347010000     0.5313980000    -0.1287510000
| 21>  H        4.5016770000    -0.8226860000    -1.8756030000
| 22>  H        4.5167070000     1.9832690000    -0.6436610000
| 23>  H        5.6847530000     1.3316200000    -1.8269160000
| 24>  H        4.4153420000    -0.5222920000     1.1729330000
| 25>  H        5.5700390000    -1.5059180000     0.2304380000
| 26> *
| 27>
| 28>                          ****END OF INPUT****
 Total Charge           Charge          ....    0
 Multiplicity           Mult            ....    1
 Number of Electrons    NEL             ....   54
 Basis Dimension        Dim             ....  133

MULLIKEN ATOMIC CHARGES
-----------------------
   0 O :   -0.171741
   1 N :   -0.040655
   2 C :    0.031650
   3 C :   -0.227391
   4 C :    0.265173
   5 O :   -0.365008
   6 C :    0.268104
   7 H :    0.172948
   8 H :   -0.004121
   9 H :    0.024623
  10 H :    0.005221
  11 H :    0.018857
  12 H :    0.004081
  13 H :    0.018259
Sum of atomic charges:   -0.0000000

LOEWDIN ATOMIC CHARGES
----------------------
   0 O :   -0.050902
   1 N :   -0.011822
   2 C :   -0.036999
   3 C :   -0.066414
   4 C :    0.094340
   5 O :   -0.184011
   6 C :    0.094956
   7 H :    0.075379
   8 H :    0.005046
   9 H :    0.036582
  10 H :    0.008170
  11 H :    0.013996
  12 H :    0.007831
  13 H :    0.013848

  Mayer bond orders larger than 0.1
B(  0-O ,  1-N ) :   0.9950 B(  0-O ,  2-C ) :   0.1179 B(  0-O ,  7-H ) :   0.9744
B(  1-N ,  2-C ) :   1.8852 B(  2-C ,  3-C ) :   1.0190 B(  2-C ,  8-H ) :   0.9361
B(  3-C ,  4-C ) :   1.0559 B(  3-C ,  6-C ) :   1.0558 B(  3-C ,  9-H ) :   0.9050
B(  4-C ,  5-O ) :   1.0369 B(  4-C , 10-H ) :   0.9300 B(  4-C , 11-H ) :   0.9346
B(  5-O ,  6-C ) :   1.0368 B(  6-C , 12-H ) :   0.9301 B(  6-C , 13-H ) :   0.9338

FINAL SINGLE POINT ENERGY      -361.039287473917

DIPOLE MOMENT
-------------
                                X             Y             Z
Electronic contribution:     -2.28330      -0.54136      -0.87027
Nuclear contribution   :      1.76363       0.29688       0.50763
                        -----------------------------------------
Total Dipole Moment    :     -0.51968      -0.24448      -0.36263
                        -----------------------------------------
Magnitude (a.u.)       :      0.67922
Magnitude (Debye)      :      1.72644

                             ****ORCA TERMINATED NORMALLY****
TOTAL RUN TIME: 0 days 0 hours 0 minutes 6 seconds 281 msec
