                         Program Version 3.0.3 - RELEASE   -
|  1> ! RI PBE def2-SVP def2-SVP/J NBO PAL2
|  2> % maxcore 2000
|  3> % output
|  4>     # printlevel mini
|  5>     print[ P_Basis ] 0
|  6>     print[ P_SCFInfo ] 1
|  7>     print[ P_SCFIterInfo ] 1
|  8>     print[ P_OrbEn ] 0
|  9>     print[ P_Cartesian ] 0
| 10> end
| 11> *xyz 0 1
| 12>  O        0.8670510000    -0.3112210000     0.1400320000
| 13>  N        1.9675820000    -0.2068490000    -0.6958530000
| 14>  C        2.9527730000    -0.8723910000    -0.2628250000
| 15>  C        4.2318800000    -0.8976540000    -1.0259030000
| 16>  C        4.6307030000    -2.2965740000    -1.4261620000
| 17>  C        6.0724490000    -2.6275160000    -1.6509750000
| 18>  C        5.3558850000    -3.1777930000    -0.4545970000
| 19>  H        0.2084100000     0.2309610000    -0.3023040000
| 20>  H        2.8687460000    -1.4456880000     0.6634320000
| 21>  H        5.0276500000    -0.4716040000    -0.4014070000
| 22>  H        4.1288680000    -0.2545500000    -1.9037900000
| 23>  H        3.9196120000    -2.7936800000    -2.0784480000
| 24>  H        6.7990200000    -1.8402470000    -1.4866620000
| 25>  H        6.3243140000    -3.3072030000    -2.4551690000
| 26>  H        5.6030840000    -2.7607290000     0.5151040000
| 27>  H        5.1191730000    -4.2341600000    -0.4382720000
| 28> *
| 29>
| 30>                          ****END OF INPUT****
 Total Charge           Charge          ....    0
 Multiplicity           Mult            ....    1
 Number of Electrons    NEL             ....   54
 Basis Dimension        Dim             ....  143

MULLIKEN ATOMIC CHARGES
-----------------------
   0 O :   -0.181828
   1 N :   -0.048951
   2 C :   -0.050633
   3 C :    0.157704
   4 C :   -0.171792
   5 C :   -0.026834
   6 C :   -0.037242
   7 H :    0.170023
   8 H :   -0.000496
   9 H :    0.009322
  10 H :    0.017868
  11 H :    0.027698
  12 H :    0.030571
  13 H :    0.036217
  14 H :    0.029274
  15 H :    0.039099
Sum of atomic charges:   -0.0000000

LOEWDIN ATOMIC CHARGES
----------------------
   0 O :   -0.059685
   1 N :   -0.018486
   2 C :   -0.032302
   3 C :   -0.039279
   4 C :   -0.041189
   5 C :   -0.045362
   6 C :   -0.048396
   7 H :    0.072445
   8 H :    0.004516
   9 H :    0.035988
  10 H :    0.036268
  11 H :    0.028654
  12 H :    0.025806
  13 H :    0.028141
  14 H :    0.024245
  15 H :    0.028636

  Mayer bond orders larger than 0.1
B(  0-O ,  1-N ) :   0.9887 B(  0-O ,  2-C ) :   0.1116 B(  0-O ,  7-H ) :   0.9764
B(  1-N ,  2-C ) :   1.9085 B(  2-C ,  3-C ) :   1.0389 B(  2-C ,  8-H ) :   0.9411
B(  3-C ,  4-C ) :   1.0647 B(  3-C ,  9-H ) :   0.8989 B(  3-C , 10-H ) :   0.9119
B(  4-C ,  5-C ) :   0.9874 B(  4-C ,  6-C ) :   0.9883 B(  4-C , 11-H ) :   0.9466
B(  5-C ,  6-C ) :   1.0476 B(  5-C , 12-H ) :   0.9457 B(  5-C , 13-H ) :   0.9461
B(  6-C , 14-H ) :   0.9503 B(  6-C , 15-H ) :   0.9484

FINAL SINGLE POINT ENERGY      -325.188360675414

DIPOLE MOMENT
-------------
                                X             Y             Z
Electronic contribution:     -6.65896       3.53808       1.08222
Nuclear contribution   :      6.73373      -3.59075      -1.13861
                        -----------------------------------------
Total Dipole Moment    :      0.07478      -0.05268      -0.05639
                        -----------------------------------------
Magnitude (a.u.)       :      0.10745
Magnitude (Debye)      :      0.27312

                             ****ORCA TERMINATED NORMALLY****
TOTAL RUN TIME: 0 days 0 hours 0 minutes 6 seconds 238 msec
