                         Program Version 3.0.3 - RELEASE   -
|  1> ! RI PBE def2-SVP def2-SVP/J NBO PAL2
|  2> % maxcore 2000
|  3> % output
|  4>     # printlevel mini
|  5>     print[ P_Basis ] 0
|  6>     print[ P_SCFInfo ] 1
|  7>     print[ P_SCFIterInfo ] 1
|  8>     print[ P_OrbEn ] 0
|  9>     print[ P_Cartesian ] 0
| 10> end
| 11> *xyz 0 1
| 12>  O        0.6041160000     0.4750370000     0.3444600000
| 13>  N        1.9057590000     0.4353310000     0.8125330000
| 14>  C        2.6982280000     1.0704060000     0.0579290000
| 15>  C        4.1462460000     1.1477510000     0.3986740000
| 16>  C        4.6181960000     2.5686370000     0.5821620000
| 17>  C        4.5715050000     3.1959390000     1.9139620000
| 18>  N        5.8530070000     2.8364110000     1.3053990000
| 19>  H        0.1224550000    -0.0386430000     0.9985490000
| 20>  H        2.3257560000     1.5703010000    -0.8392860000
| 21>  H        4.7292570000     0.6792360000    -0.4048220000
| 22>  H        4.3206610000     0.5726720000     1.3125160000
| 23>  H        4.4847850000     3.2092110000    -0.2867010000
| 24>  H        4.1957880000     2.5918180000     2.7344200000
| 25>  H        4.3942180000     4.2611390000     2.0122770000
| 26>  H        6.2072330000     1.9795740000     1.7187370000
| 27> *
| 28>
| 29>                          ****END OF INPUT****
 Total Charge           Charge          ....    0
 Multiplicity           Mult            ....    1
 Number of Electrons    NEL             ....   54
 Basis Dimension        Dim             ....  138

MULLIKEN ATOMIC CHARGES
-----------------------
   0 O :   -0.177807
   1 N :   -0.049408
   2 C :   -0.044064
   3 C :    0.147710
   4 C :   -0.137111
   5 C :    0.044072
   6 N :   -0.190781
   7 H :    0.171454
   8 H :    0.003685
   9 H :    0.036654
  10 H :   -0.004819
  11 H :    0.027578
  12 H :    0.030642
  13 H :    0.036820
  14 H :    0.105377
Sum of atomic charges:   -0.0000000

LOEWDIN ATOMIC CHARGES
----------------------
   0 O :   -0.055849
   1 N :   -0.018301
   2 C :   -0.030420
   3 C :   -0.051789
   4 C :   -0.008164
   5 C :    0.002275
   6 N :   -0.100794
   7 H :    0.073550
   8 H :    0.005741
   9 H :    0.040731
  10 H :    0.031558
  11 H :    0.021709
  12 H :    0.016276
  13 H :    0.022060
  14 H :    0.051416

  Mayer bond orders larger than 0.1
B(  0-O ,  1-N ) :   0.9905 B(  0-O ,  2-C ) :   0.1138 B(  0-O ,  7-H ) :   0.9758
B(  1-N ,  2-C ) :   1.9187 B(  2-C ,  3-C ) :   1.0300 B(  2-C ,  8-H ) :   0.9395
B(  3-C ,  4-C ) :   1.0510 B(  3-C ,  9-H ) :   0.9067 B(  3-C , 10-H ) :   0.8992
B(  4-C ,  5-C ) :   1.0579 B(  4-C ,  6-N ) :   0.9949 B(  4-C , 11-H ) :   0.9306
B(  5-C ,  6-N ) :   1.0117 B(  5-C , 12-H ) :   0.9401 B(  5-C , 13-H ) :   0.9419
B(  6-N , 14-H ) :   0.9477

FINAL SINGLE POINT ENERGY      -341.197449566906

DIPOLE MOMENT
-------------
                                X             Y             Z
Electronic contribution:     -3.56034      -2.02014      -0.77384
Nuclear contribution   :      3.20662       1.57858       0.95133
                        -----------------------------------------
Total Dipole Moment    :     -0.35371      -0.44156       0.17749
                        -----------------------------------------
Magnitude (a.u.)       :      0.59295
Magnitude (Debye)      :      1.50717

                             ****ORCA TERMINATED NORMALLY****
TOTAL RUN TIME: 0 days 0 hours 0 minutes 6 seconds 586 msec
