                         Program Version 3.0.3 - RELEASE   -
|  1> ! RI PBE def2-SVP def2-SVP/J NBO PAL2
|  2> % maxcore 2000
|  3> % output
|  4>     # printlevel mini
|  5>     print[ P_Basis ] 0
|  6>     print[ P_SCFInfo ] 1
|  7>     print[ P_SCFIterInfo ] 1
|  8>     print[ P_OrbEn ] 0
|  9>     print[ P_Cartesian ] 0
| 10> end
| 11> *xyz 0 1
| 12>  O        0.8504450000     0.3691810000     0.6423100000
| 13>  N        2.1469440000     0.1825670000     1.0855640000
| 14>  C        2.9699200000     0.9136870000     0.4611520000
| 15>  C        4.4182940000     0.8546510000     0.8063830000
| 16>  C        4.9436440000     2.1888000000     1.2622540000
| 17>  C        6.2970410000     2.6304050000     0.9470410000
| 18>  O        5.1797630000     3.1546000000     0.2484240000
| 19>  H        0.3442680000    -0.2379280000     1.1890790000
| 20>  H        2.6321720000     1.5953130000    -0.3216990000
| 21>  H        4.9914670000     0.5418650000    -0.0734460000
| 22>  H        4.5641970000     0.1086540000     1.5920450000
| 23>  H        4.4696980000     2.5963950000     2.1545170000
| 24>  H        6.9445500000     1.9781970000     0.3651120000
| 25>  H        6.8047070000     3.3306130000     1.6054630000
| 26> *
| 27>
| 28>                          ****END OF INPUT****
 Total Charge           Charge          ....    0
 Multiplicity           Mult            ....    1
 Number of Electrons    NEL             ....   54
 Basis Dimension        Dim             ....  133

MULLIKEN ATOMIC CHARGES
-----------------------
   0 O :   -0.175637
   1 N :   -0.046905
   2 C :   -0.064466
   3 C :    0.160806
   4 C :   -0.040044
   5 C :    0.148567
   6 O :   -0.290254
   7 H :    0.171645
   8 H :    0.016049
   9 H :    0.015409
  10 H :    0.024008
  11 H :    0.023576
  12 H :    0.023980
  13 H :    0.033266
Sum of atomic charges:    0.0000000

LOEWDIN ATOMIC CHARGES
----------------------
   0 O :   -0.053837
   1 N :   -0.017274
   2 C :   -0.032177
   3 C :   -0.053367
   4 C :    0.041738
   5 C :    0.056792
   6 O :   -0.158548
   7 H :    0.073589
   8 H :    0.010505
   9 H :    0.041968
  10 H :    0.041522
  11 H :    0.017697
  12 H :    0.014106
  13 H :    0.017286

  Mayer bond orders larger than 0.1
B(  0-O ,  1-N ) :   0.9937 B(  0-O ,  2-C ) :   0.1153 B(  0-O ,  7-H ) :   0.9758
B(  1-N ,  2-C ) :   1.9072 B(  2-C ,  3-C ) :   1.0343 B(  2-C ,  8-H ) :   0.9471
B(  3-C ,  4-C ) :   1.0320 B(  3-C ,  9-H ) :   0.8926 B(  3-C , 10-H ) :   0.9094
B(  4-C ,  5-C ) :   1.0835 B(  4-C ,  6-O ) :   0.9737 B(  4-C , 11-H ) :   0.9372
B(  5-C ,  6-O ) :   1.0040 B(  5-C , 12-H ) :   0.9291 B(  5-C , 13-H ) :   0.9369

FINAL SINGLE POINT ENERGY      -361.040447563220

DIPOLE MOMENT
-------------
                                X             Y             Z
Electronic contribution:     -3.80340      -0.11816      -0.59670
Nuclear contribution   :      4.05153      -0.31451       1.04854
                        -----------------------------------------
Total Dipole Moment    :      0.24812      -0.43268       0.45184
                        -----------------------------------------
Magnitude (a.u.)       :      0.67300
Magnitude (Debye)      :      1.71064

                             ****ORCA TERMINATED NORMALLY****
TOTAL RUN TIME: 0 days 0 hours 0 minutes 6 seconds 179 msec
