                         Program Version 3.0.3 - RELEASE   -
|  1> ! RI PBE def2-SVP def2-SVP/J NBO PAL2
|  2> % maxcore 2000
|  3> % output
|  4>     # printlevel mini
|  5>     print[ P_Basis ] 0
|  6>     print[ P_SCFInfo ] 1
|  7>     print[ P_SCFIterInfo ] 1
|  8>     print[ P_OrbEn ] 0
|  9>     print[ P_Cartesian ] 0
| 10> end
| 11> *xyz 0 1
| 12>  O        1.6101840000     0.1152060000     0.2649270000
| 13>  N        2.8839470000    -0.3188310000    -0.0324910000
| 14>  C        2.9567540000    -0.9441130000    -1.1523390000
| 15>  C        1.8274350000    -1.1066970000    -2.0660030000
| 16>  C        1.8243500000    -1.9272620000    -3.1140340000
| 17>  C        4.2771130000    -1.4886940000    -1.5021880000
| 18>  C        5.1522680000    -1.9603950000    -0.6220940000
| 19>  H        1.7409080000     0.6037380000     1.0820030000
| 20>  H        0.9489860000    -0.5138290000    -1.8419250000
| 21>  H        2.6703160000    -2.5601490000    -3.3574290000
| 22>  H        0.9569320000    -2.0016910000    -3.7590520000
| 23>  H        4.5219670000    -1.4923300000    -2.5602330000
| 24>  H        4.9226670000    -1.9891550000     0.4365870000
| 25>  H        6.1229850000    -2.3228870000    -0.9387380000
| 26> *
| 27>
| 28>                          ****END OF INPUT****
 Total Charge           Charge          ....    0
 Multiplicity           Mult            ....    1
 Number of Electrons    NEL             ....   52
 Basis Dimension        Dim             ....  133

MULLIKEN ATOMIC CHARGES
-----------------------
   0 O :   -0.163657
   1 N :   -0.029098
   2 C :   -0.071371
   3 C :    0.021428
   4 C :   -0.027271
   5 C :   -0.039259
   6 C :   -0.001203
   7 H :    0.177414
   8 H :    0.005466
   9 H :    0.029775
  10 H :    0.033726
  11 H :    0.011100
  12 H :    0.030688
  13 H :    0.022260
Sum of atomic charges:    0.0000000

LOEWDIN ATOMIC CHARGES
----------------------
   0 O :   -0.037363
   1 N :   -0.008540
   2 C :   -0.066337
   3 C :   -0.038964
   4 C :   -0.030803
   5 C :   -0.036611
   6 C :   -0.027149
   7 H :    0.077919
   8 H :    0.031293
   9 H :    0.024673
  10 H :    0.028889
  11 H :    0.030223
  12 H :    0.026700
  13 H :    0.026068

  Mayer bond orders larger than 0.1
B(  0-O ,  1-N ) :   1.0160 B(  0-O ,  7-H ) :   0.9731 B(  1-N ,  2-C ) :   1.7939
B(  2-C ,  3-C ) :   1.0713 B(  2-C ,  5-C ) :   1.0590 B(  3-C ,  4-C ) :   1.9022
B(  3-C ,  8-H ) :   0.9452 B(  4-C ,  9-H ) :   0.9375 B(  4-C , 10-H ) :   0.9414
B(  5-C ,  6-C ) :   1.9714 B(  5-C , 11-H ) :   0.9418 B(  6-C , 12-H ) :   0.9459
B(  6-C , 13-H ) :   0.9342

FINAL SINGLE POINT ENERGY      -323.978604311743

DIPOLE MOMENT
-------------
                                X             Y             Z
Electronic contribution:     -1.64878       2.76347       2.88104
Nuclear contribution   :      1.52129      -2.70948      -2.87771
                        -----------------------------------------
Total Dipole Moment    :     -0.12748       0.05399       0.00334
                        -----------------------------------------
Magnitude (a.u.)       :      0.13848
Magnitude (Debye)      :      0.35200

                             ****ORCA TERMINATED NORMALLY****
TOTAL RUN TIME: 0 days 0 hours 0 minutes 6 seconds 538 msec
