                         Program Version 3.0.3 - RELEASE   -
|  1> ! RI PBE def2-SVP def2-SVP/J NBO PAL2
|  2> % maxcore 2000
|  3> % output
|  4>     # printlevel mini
|  5>     print[ P_Basis ] 0
|  6>     print[ P_SCFInfo ] 1
|  7>     print[ P_SCFIterInfo ] 1
|  8>     print[ P_OrbEn ] 0
|  9>     print[ P_Cartesian ] 0
| 10> end
| 11> *xyz 0 1
| 12>  O        0.9362360000    -0.0866480000     0.2546760000
| 13>  N        2.3068730000    -0.0986370000     0.2433880000
| 14>  C        2.8027710000     0.6441980000    -0.6844490000
| 15>  C        2.0233510000     1.4288800000    -1.6402900000
| 16>  C        2.5704220000     2.1857290000    -2.5872120000
| 17>  C        4.2294600000     0.6694700000    -0.7439310000
| 18>  C        5.4260260000     0.7225890000    -0.8332200000
| 19>  H        0.7252190000    -0.6746040000     0.9855410000
| 20>  H        0.9480400000     1.3615870000    -1.5363290000
| 21>  H        3.6461350000     2.2610570000    -2.7011260000
| 22>  H        1.9518700000     2.7505380000    -3.2740480000
| 23>  H        6.4882070000     0.7555500000    -0.8952300000
| 24> *
| 25>
| 26>                          ****END OF INPUT****
 Total Charge           Charge          ....    0
 Multiplicity           Mult            ....    1
 Number of Electrons    NEL             ....   50
 Basis Dimension        Dim             ....  123

MULLIKEN ATOMIC CHARGES
-----------------------
   0 O :   -0.152725
   1 N :   -0.021932
   2 C :   -0.100315
   3 C :    0.039373
   4 C :   -0.002321
   5 C :    0.447006
   6 C :   -0.473358
   7 H :    0.181246
   8 H :    0.005008
   9 H :    0.037808
  10 H :    0.032548
  11 H :    0.007662
Sum of atomic charges:    0.0000000

LOEWDIN ATOMIC CHARGES
----------------------
   0 O :   -0.027174
   1 N :    0.004451
   2 C :   -0.077913
   3 C :   -0.039701
   4 C :   -0.014516
   5 C :   -0.007376
   6 C :   -0.052560
   7 H :    0.082387
   8 H :    0.033714
   9 H :    0.030825
  10 H :    0.030047
  11 H :    0.037816

  Mayer bond orders larger than 0.1
B(  0-O ,  1-N ) :   1.0283 B(  0-O ,  7-H ) :   0.9706 B(  1-N ,  2-C ) :   1.7488
B(  1-N ,  4-C ) :   0.1002 B(  2-C ,  3-C ) :   1.0800 B(  2-C ,  5-C ) :   0.9827
B(  3-C ,  4-C ) :   1.8904 B(  3-C ,  8-H ) :   0.9495 B(  4-C ,  9-H ) :   0.9318
B(  4-C , 10-H ) :   0.9387 B(  5-C ,  6-C ) :   2.2595 B(  5-C , 11-H ) :  -0.1098
B(  6-C , 11-H ) :   1.0992

FINAL SINGLE POINT ENERGY      -322.734310989214

DIPOLE MOMENT
-------------
                                X             Y             Z
Electronic contribution:     -0.01194      -2.46057       3.04580
Nuclear contribution   :     -0.24058       2.50580      -3.09636
                        -----------------------------------------
Total Dipole Moment    :     -0.25252       0.04523      -0.05056
                        -----------------------------------------
Magnitude (a.u.)       :      0.26147
Magnitude (Debye)      :      0.66460

                             ****ORCA TERMINATED NORMALLY****
TOTAL RUN TIME: 0 days 0 hours 0 minutes 6 seconds 199 msec
