                         Program Version 3.0.3 - RELEASE   -
|  1> ! RI PBE def2-SVP def2-SVP/J NBO PAL2
|  2> % maxcore 2000
|  3> % output
|  4>     # printlevel mini
|  5>     print[ P_Basis ] 0
|  6>     print[ P_SCFInfo ] 1
|  7>     print[ P_SCFIterInfo ] 1
|  8>     print[ P_OrbEn ] 0
|  9>     print[ P_Cartesian ] 0
| 10> end
| 11> *xyz 0 1
| 12>  O        0.8764070000     0.0537340000    -0.0415630000
| 13>  N        2.2301060000     0.1297110000     0.0485510000
| 14>  C        2.8228350000    -0.6074920000    -0.8261930000
| 15>  C        2.1479940000    -1.4164090000    -1.7859750000
| 16>  C        1.5965510000    -2.1037410000    -2.6015600000
| 17>  C        4.2480240000    -0.6054610000    -0.8238340000
| 18>  C        5.4475560000    -0.6367800000    -0.8610450000
| 19>  H        0.5772190000     0.6433760000     0.6580790000
| 20>  H        1.1034800000    -2.7115490000    -3.3234590000
| 21>  H        6.5116270000    -0.6561890000    -0.8840100000
| 22> *
| 23>
| 24>                          ****END OF INPUT****
 Total Charge           Charge          ....    0
 Multiplicity           Mult            ....    1
 Number of Electrons    NEL             ....   48
 Basis Dimension        Dim             ....  113

MULLIKEN ATOMIC CHARGES
-----------------------
   0 O :   -0.130657
   1 N :   -0.019780
   2 C :   -0.120584
   3 C :    0.486838
   4 C :   -0.455328
   5 C :    0.477260
   6 C :   -0.446723
   7 H :    0.183845
   8 H :    0.013852
   9 H :    0.011278
Sum of atomic charges:   -0.0000000

LOEWDIN ATOMIC CHARGES
----------------------
   0 O :   -0.006507
   1 N :    0.014123
   2 C :   -0.090959
   3 C :   -0.018155
   4 C :   -0.022712
   5 C :   -0.006022
   6 C :   -0.035414
   7 H :    0.085066
   8 H :    0.041052
   9 H :    0.039526

  Mayer bond orders larger than 0.1
B(  0-O ,  1-N ) :   1.0648 B(  0-O ,  7-H ) :   0.9695 B(  1-N ,  2-C ) :   1.7524
B(  1-N ,  4-C ) :   0.1051 B(  2-C ,  3-C ) :   0.9523 B(  2-C ,  5-C ) :   1.0067
B(  3-C ,  4-C ) :   2.2422 B(  3-C ,  8-H ) :  -0.1058 B(  4-C ,  8-H ) :   1.0954
B(  5-C ,  6-C ) :   2.2644 B(  5-C ,  9-H ) :  -0.1062 B(  6-C ,  9-H ) :   1.0965

FINAL SINGLE POINT ENERGY      -321.482839605140

DIPOLE MOMENT
-------------
                                X             Y             Z
Electronic contribution:     -0.42560       0.59850       0.70958
Nuclear contribution   :      0.13254      -0.58808      -0.69840
                        -----------------------------------------
Total Dipole Moment    :     -0.29306       0.01042       0.01119
                        -----------------------------------------
Magnitude (a.u.)       :      0.29346
Magnitude (Debye)      :      0.74591

                             ****ORCA TERMINATED NORMALLY****
TOTAL RUN TIME: 0 days 0 hours 0 minutes 5 seconds 455 msec
