                         Program Version 3.0.3 - RELEASE   -
|  1> ! RI PBE def2-SVP def2-SVP/J NBO PAL2
|  2> % maxcore 2000
|  3> % output
|  4>     # printlevel mini
|  5>     print[ P_Basis ] 0
|  6>     print[ P_SCFInfo ] 1
|  7>     print[ P_SCFIterInfo ] 1
|  8>     print[ P_OrbEn ] 0
|  9>     print[ P_Cartesian ] 0
| 10> end
| 11> *xyz 0 1
| 12>  O        0.5637250000    -2.0489490000     0.9527150000
| 13>  N        1.6367620000    -1.2306540000     0.6814180000
| 14>  C        2.7380510000    -1.7730170000     1.0295060000
| 15>  C        3.9755530000    -1.0708510000     0.8257450000
| 16>  C        5.1714950000    -1.5779320000     1.1664720000
| 17>  C        6.4239910000    -0.8912320000     0.9712240000
| 18>  C        7.6129440000    -1.3941150000     1.3094380000
| 19>  H       -0.1889430000    -1.5334540000     0.6491180000
| 20>  H        2.7463350000    -2.7671330000     1.4808600000
| 21>  H        3.9042320000    -0.0859720000     0.3725960000
| 22>  H        5.2176070000    -2.5669230000     1.6191610000
| 23>  H        6.3709670000     0.0964750000     0.5184680000
| 24>  H        7.7013880000    -2.3761430000     1.7628900000
| 25>  H        8.5300920000    -0.8426000000     1.1443790000
| 26> *
| 27>
| 28>                          ****END OF INPUT****
 Total Charge           Charge          ....    0
 Multiplicity           Mult            ....    1
 Number of Electrons    NEL             ....   52
 Basis Dimension        Dim             ....  133

MULLIKEN ATOMIC CHARGES
-----------------------
   0 O :   -0.162767
   1 N :   -0.051532
   2 C :    0.010645
   3 C :    0.028999
   4 C :    0.009724
   5 C :   -0.001362
   6 C :   -0.026097
   7 H :    0.175845
   8 H :   -0.009815
   9 H :   -0.002889
  10 H :   -0.013944
  11 H :   -0.005555
  12 H :    0.020201
  13 H :    0.028548
Sum of atomic charges:   -0.0000000

LOEWDIN ATOMIC CHARGES
----------------------
   0 O :   -0.039103
   1 N :   -0.015063
   2 C :   -0.039277
   3 C :   -0.033131
   4 C :   -0.025584
   5 C :   -0.031275
   6 C :   -0.045486
   7 H :    0.077592
   8 H :    0.009237
   9 H :    0.032752
  10 H :    0.027862
  11 H :    0.030871
  12 H :    0.023905
  13 H :    0.026700

  Mayer bond orders larger than 0.1
B(  0-O ,  1-N ) :   1.0078 B(  0-O ,  7-H ) :   0.9736 B(  1-N ,  2-C ) :   1.7683
B(  2-C ,  3-C ) :   1.1299 B(  2-C ,  8-H ) :   0.9472 B(  3-C ,  4-C ) :   1.6433
B(  3-C ,  6-C ) :   0.1167 B(  3-C ,  9-H ) :   0.9633 B(  4-C ,  5-C ) :   1.1573
B(  4-C , 10-H ) :   0.9621 B(  5-C ,  6-C ) :   1.8579 B(  5-C , 11-H ) :   0.9603
B(  6-C , 12-H ) :   0.9467 B(  6-C , 13-H ) :   0.9439

FINAL SINGLE POINT ENERGY      -323.991269413526

DIPOLE MOMENT
-------------
                                X             Y             Z
Electronic contribution:     -6.64161      -0.05603      -0.59234
Nuclear contribution   :      6.54967       0.05625       0.58138
                        -----------------------------------------
Total Dipole Moment    :     -0.09194       0.00023      -0.01096
                        -----------------------------------------
Magnitude (a.u.)       :      0.09259
Magnitude (Debye)      :      0.23534

                             ****ORCA TERMINATED NORMALLY****
TOTAL RUN TIME: 0 days 0 hours 0 minutes 6 seconds 269 msec
