                         Program Version 3.0.3 - RELEASE   -
|  1> ! RI PBE def2-SVP def2-SVP/J NBO PAL2
|  2> % maxcore 2000
|  3> % output
|  4>     # printlevel mini
|  5>     print[ P_Basis ] 0
|  6>     print[ P_SCFInfo ] 1
|  7>     print[ P_SCFIterInfo ] 1
|  8>     print[ P_OrbEn ] 0
|  9>     print[ P_Cartesian ] 0
| 10> end
| 11> *xyz 0 1
| 12>  O        0.9833910000    -0.0718780000     0.3495460000
| 13>  N        2.3442260000    -0.2450080000     0.3049670000
| 14>  C        2.9650320000     0.8344750000     0.5829150000
| 15>  C        4.4024550000     0.8394470000     0.5841960000
| 16>  C        5.1191570000     1.9395040000     0.8674420000
| 17>  C        6.5296030000     1.9852230000     0.8792140000
| 18>  C        7.7313870000     2.0582050000     0.8980060000
| 19>  H        0.6410880000    -0.9422820000     0.1254320000
| 20>  H        2.4156560000     1.7478800000     0.8181020000
| 21>  H        4.8975620000    -0.0951860000     0.3435440000
| 22>  H        4.6028130000     2.8667670000     1.1061960000
| 23>  H        8.7941490000     2.1130640000     0.9121290000
| 24> *
| 25>
| 26>                          ****END OF INPUT****
 Total Charge           Charge          ....    0
 Multiplicity           Mult            ....    1
 Number of Electrons    NEL             ....   50
 Basis Dimension        Dim             ....  123

MULLIKEN ATOMIC CHARGES
-----------------------
   0 O :   -0.156437
   1 N :   -0.042101
   2 C :    0.003967
   3 C :    0.048358
   4 C :   -0.076748
   5 C :    0.395905
   6 C :   -0.403191
   7 H :    0.177599
   8 H :   -0.001721
   9 H :    0.015622
  10 H :    0.030541
  11 H :    0.008207
Sum of atomic charges:    0.0000000

LOEWDIN ATOMIC CHARGES
----------------------
   0 O :   -0.032518
   1 N :   -0.007320
   2 C :   -0.039839
   3 C :   -0.010341
   4 C :   -0.045984
   5 C :   -0.018604
   6 C :   -0.057079
   7 H :    0.079357
   8 H :    0.011280
   9 H :    0.040401
  10 H :    0.043903
  11 H :    0.036743

  Mayer bond orders larger than 0.1
B(  0-O ,  1-N ) :   1.0150 B(  0-O ,  7-H ) :   0.9721 B(  1-N ,  2-C ) :   1.7641
B(  1-N ,  4-C ) :   0.1003 B(  2-C ,  3-C ) :   1.1326 B(  2-C ,  8-H ) :   0.9485
B(  3-C ,  4-C ) :   1.6712 B(  3-C ,  6-C ) :   0.1126 B(  3-C ,  9-H ) :   0.9674
B(  4-C ,  5-C ) :   1.0502 B(  4-C , 10-H ) :   0.9433 B(  5-C ,  6-C ) :   2.2535
B(  6-C , 11-H ) :   1.0882

FINAL SINGLE POINT ENERGY      -322.743798686796

DIPOLE MOMENT
-------------
                                X             Y             Z
Electronic contribution:     -0.97326      -0.84694      -0.21514
Nuclear contribution   :      0.67141       0.72298       0.18615
                        -----------------------------------------
Total Dipole Moment    :     -0.30185      -0.12396      -0.02899
                        -----------------------------------------
Magnitude (a.u.)       :      0.32760
Magnitude (Debye)      :      0.83270

                             ****ORCA TERMINATED NORMALLY****
TOTAL RUN TIME: 0 days 0 hours 0 minutes 5 seconds 283 msec
