                         Program Version 3.0.3 - RELEASE   -
|  1> ! RI PBE def2-SVP def2-SVP/J NBO PAL2
|  2> % maxcore 2000
|  3> % output
|  4>     # printlevel mini
|  5>     print[ P_Basis ] 0
|  6>     print[ P_SCFInfo ] 1
|  7>     print[ P_SCFIterInfo ] 1
|  8>     print[ P_OrbEn ] 0
|  9>     print[ P_Cartesian ] 0
| 10> end
| 11> *xyz 0 1
| 12>  O        1.0704540000     1.3516800000     0.6542970000
| 13>  N        2.4220220000     1.5917350000     0.5429140000
| 14>  C        3.0534310000     0.5523030000     0.1721560000
| 15>  C        4.5006120000     0.5780960000    -0.0031540000
| 16>  C        5.1213720000    -0.5445720000    -0.3882250000
| 17>  C        5.2132130000     1.8310560000     0.2817080000
| 18>  C        6.2991040000     2.2450320000    -0.3614930000
| 19>  H        0.7180280000     2.2015710000     0.9332320000
| 20>  H        2.5204040000    -0.3806730000    -0.0187950000
| 21>  H        4.5615050000    -1.4465300000    -0.6076980000
| 22>  H        6.1992150000    -0.5911010000    -0.4794060000
| 23>  H        4.7793860000     2.4533610000     1.0580240000
| 24>  H        6.7249660000     1.6841580000    -1.1867920000
| 25>  H        6.7882680000     3.1734830000    -0.0921580000
| 26> *
| 27>
| 28>                          ****END OF INPUT****
 Total Charge           Charge          ....    0
 Multiplicity           Mult            ....    1
 Number of Electrons    NEL             ....   52
 Basis Dimension        Dim             ....  133

MULLIKEN ATOMIC CHARGES
-----------------------
   0 O :   -0.161567
   1 N :   -0.030286
   2 C :    0.004956
   3 C :   -0.009104
   4 C :   -0.038739
   5 C :   -0.002582
   6 C :   -0.031065
   7 H :    0.174371
   8 H :   -0.015272
   9 H :    0.019835
  10 H :    0.026275
  11 H :    0.011138
  12 H :    0.023029
  13 H :    0.029010
Sum of atomic charges:   -0.0000000

LOEWDIN ATOMIC CHARGES
----------------------
   0 O :   -0.039803
   1 N :   -0.009293
   2 C :   -0.030307
   3 C :   -0.045770
   4 C :   -0.033126
   5 C :   -0.019803
   6 C :   -0.040236
   7 H :    0.076707
   8 H :    0.009717
   9 H :    0.024267
  10 H :    0.026102
  11 H :    0.031586
  12 H :    0.022877
  13 H :    0.027083

  Mayer bond orders larger than 0.1
B(  0-O ,  1-N ) :   1.0037 B(  0-O ,  2-C ) :   0.1048 B(  0-O ,  7-H ) :   0.9734
B(  1-N ,  2-C ) :   1.8499 B(  1-N ,  4-C ) :   0.1054 B(  2-C ,  3-C ) :   1.0703
B(  2-C ,  8-H ) :   0.9434 B(  3-C ,  4-C ) :   1.8453 B(  3-C ,  5-C ) :   1.0531
B(  4-C ,  9-H ) :   0.9369 B(  4-C , 10-H ) :   0.9362 B(  5-C ,  6-C ) :   1.9528
B(  5-C , 11-H ) :   0.9428 B(  6-C , 12-H ) :   0.9498 B(  6-C , 13-H ) :   0.9436

FINAL SINGLE POINT ENERGY      -323.980054962047

DIPOLE MOMENT
-------------
                                X             Y             Z
Electronic contribution:     -5.06316       0.66257       1.34924
Nuclear contribution   :      4.94763      -0.57797      -1.31196
                        -----------------------------------------
Total Dipole Moment    :     -0.11552       0.08461       0.03727
                        -----------------------------------------
Magnitude (a.u.)       :      0.14796
Magnitude (Debye)      :      0.37609

                             ****ORCA TERMINATED NORMALLY****
TOTAL RUN TIME: 0 days 0 hours 0 minutes 6 seconds 20 msec
