                         Program Version 3.0.3 - RELEASE   -
|  1> ! RI PBE def2-SVP def2-SVP/J NBO PAL2
|  2> % maxcore 2000
|  3> % output
|  4>     # printlevel mini
|  5>     print[ P_Basis ] 0
|  6>     print[ P_SCFInfo ] 1
|  7>     print[ P_SCFIterInfo ] 1
|  8>     print[ P_OrbEn ] 0
|  9>     print[ P_Cartesian ] 0
| 10> end
| 11> *xyz 0 1
| 12>  O        0.8204400000     0.9884800000     1.3239580000
| 13>  N        2.1486550000     1.0316680000     1.6709960000
| 14>  C        2.8792820000     0.4718000000     0.7954100000
| 15>  C        4.3273010000     0.4021760000     0.9599480000
| 16>  C        5.0770350000    -0.1942410000     0.0214650000
| 17>  C        4.9184000000     0.9744190000     2.1246310000
| 18>  C        5.4264150000     1.4533830000     3.1019000000
| 19>  H        0.3862740000     1.4370940000     2.0557190000
| 20>  H        2.4431320000     0.0293050000    -0.1012050000
| 21>  H        4.6177350000    -0.6260550000    -0.8600030000
| 22>  H        6.1521300000    -0.2592050000     0.1195550000
| 23>  H        5.8722920000     1.8802860000     3.9688270000
| 24> *
| 25>
| 26>                          ****END OF INPUT****
 Total Charge           Charge          ....    0
 Multiplicity           Mult            ....    1
 Number of Electrons    NEL             ....   50
 Basis Dimension        Dim             ....  123

MULLIKEN ATOMIC CHARGES
-----------------------
   0 O :   -0.158536
   1 N :   -0.008465
   2 C :    0.015712
   3 C :   -0.043138
   4 C :   -0.006770
   5 C :    0.430077
   6 C :   -0.458512
   7 H :    0.177604
   8 H :   -0.015245
   9 H :    0.024628
  10 H :    0.036944
  11 H :    0.005702
Sum of atomic charges:   -0.0000000

LOEWDIN ATOMIC CHARGES
----------------------
   0 O :   -0.035193
   1 N :    0.002806
   2 C :   -0.029380
   3 C :   -0.057371
   4 C :   -0.015093
   5 C :   -0.003163
   6 C :   -0.051134
   7 H :    0.079518
   8 H :    0.011014
   9 H :    0.027192
  10 H :    0.033711
  11 H :    0.037093

  Mayer bond orders larger than 0.1
B(  0-O ,  1-N ) :   1.0062 B(  0-O ,  2-C ) :   0.1112 B(  0-O ,  7-H ) :   0.9723
B(  1-N ,  2-C ) :   1.8678 B(  1-N ,  4-C ) :   0.1023 B(  2-C ,  3-C ) :   1.0689
B(  2-C ,  8-H ) :   0.9429 B(  3-C ,  4-C ) :   1.8309 B(  3-C ,  5-C ) :   0.9593
B(  4-C ,  6-C ) :   0.1113 B(  4-C ,  9-H ) :   0.9351 B(  4-C , 10-H ) :   0.9408
B(  5-C ,  6-C ) :   2.2863 B(  5-C , 11-H ) :  -0.1033 B(  6-C , 11-H ) :   1.0926

FINAL SINGLE POINT ENERGY      -322.735007796057

DIPOLE MOMENT
-------------
                                X             Y             Z
Electronic contribution:     -1.88744       1.15424       1.73115
Nuclear contribution   :      1.71411      -1.14167      -1.74343
                        -----------------------------------------
Total Dipole Moment    :     -0.17333       0.01256      -0.01228
                        -----------------------------------------
Magnitude (a.u.)       :      0.17421
Magnitude (Debye)      :      0.44282

                             ****ORCA TERMINATED NORMALLY****
TOTAL RUN TIME: 0 days 0 hours 0 minutes 5 seconds 789 msec
