                         Program Version 3.0.3 - RELEASE   -
|  1> ! RI PBE def2-SVP def2-SVP/J NBO PAL2
|  2> % maxcore 2000
|  3> % output
|  4>     # printlevel mini
|  5>     print[ P_Basis ] 0
|  6>     print[ P_SCFInfo ] 1
|  7>     print[ P_SCFIterInfo ] 1
|  8>     print[ P_OrbEn ] 0
|  9>     print[ P_Cartesian ] 0
| 10> end
| 11> *xyz 0 1
| 12>  O        0.8575150000     0.0670500000    -0.1212810000
| 13>  N        2.1887700000     0.1698230000     0.1931060000
| 14>  C        2.8841800000     0.4365000000    -0.8449400000
| 15>  C        4.2828340000     0.5860890000    -0.7503340000
| 16>  C        5.4833320000     0.7254480000    -0.7289730000
| 17>  C        6.8860640000     0.8904950000    -0.7187790000
| 18>  C        7.6456660000     0.7869800000     0.3735180000
| 19>  H        0.4457190000    -0.1319240000     0.7248160000
| 20>  H        2.4040770000     0.5520920000    -1.8180050000
| 21>  H        7.3480340000     1.1155200000    -1.6768980000
| 22>  H        7.2149650000     0.5638200000     1.3421030000
| 23>  H        8.7181560000     0.9247360000     0.3162560000
| 24> *
| 25>
| 26>                          ****END OF INPUT****
 Total Charge           Charge          ....    0
 Multiplicity           Mult            ....    1
 Number of Electrons    NEL             ....   50
 Basis Dimension        Dim             ....  123

MULLIKEN ATOMIC CHARGES
-----------------------
   0 O :   -0.156221
   1 N :   -0.042449
   2 C :   -0.057215
   3 C :    0.055192
   4 C :   -0.022684
   5 C :   -0.086592
   6 C :   -0.010535
   7 H :    0.178638
   8 H :    0.030046
   9 H :    0.033241
  10 H :    0.039170
  11 H :    0.039409
Sum of atomic charges:   -0.0000000

LOEWDIN ATOMIC CHARGES
----------------------
   0 O :   -0.031095
   1 N :    0.005457
   2 C :   -0.053497
   3 C :   -0.045113
   4 C :   -0.020892
   5 C :   -0.047447
   6 C :   -0.017319
   7 H :    0.080566
   8 H :    0.021318
   9 H :    0.045502
  10 H :    0.032435
  11 H :    0.030085

  Mayer bond orders larger than 0.1
B(  0-O ,  1-N ) :   1.0189 B(  0-O ,  2-C ) :   0.1044 B(  0-O ,  7-H ) :   0.9720
B(  1-N ,  2-C ) :   1.7801 B(  2-C ,  3-C ) :   1.0163 B(  2-C ,  8-H ) :   0.9443
B(  3-C ,  4-C ) :   2.3600 B(  3-C ,  6-C ) :   0.1130 B(  4-C ,  5-C ) :   1.0827
B(  5-C ,  6-C ) :   1.8863 B(  5-C ,  9-H ) :   0.9447 B(  6-C , 10-H ) :   0.9543
B(  6-C , 11-H ) :   0.9441

FINAL SINGLE POINT ENERGY      -322.742342775360

DIPOLE MOMENT
-------------
                                X             Y             Z
Electronic contribution:     -4.90692      -0.49004      -0.49763
Nuclear contribution   :      4.86334       0.47899       0.56230
                        -----------------------------------------
Total Dipole Moment    :     -0.04358      -0.01104       0.06467
                        -----------------------------------------
Magnitude (a.u.)       :      0.07876
Magnitude (Debye)      :      0.20020

                             ****ORCA TERMINATED NORMALLY****
TOTAL RUN TIME: 0 days 0 hours 0 minutes 5 seconds 693 msec
