                         Program Version 3.0.3 - RELEASE   -
|  1> ! RI PBE def2-SVP def2-SVP/J NBO PAL2
|  2> % maxcore 2000
|  3> % output
|  4>     # printlevel mini
|  5>     print[ P_Basis ] 0
|  6>     print[ P_SCFInfo ] 1
|  7>     print[ P_SCFIterInfo ] 1
|  8>     print[ P_OrbEn ] 0
|  9>     print[ P_Cartesian ] 0
| 10> end
| 11> *xyz 0 1
| 12>  O        1.0222260000    -0.1049870000     0.1142820000
| 13>  N        2.3689520000     0.0636240000    -0.0515250000
| 14>  C        3.0275720000    -0.7170310000     0.7160920000
| 15>  C        4.4364110000    -0.7023790000     0.7016790000
| 16>  C        5.6455690000    -0.7454560000     0.7440420000
| 17>  C        7.0037300000    -0.7818720000     0.7798560000
| 18>  C        8.2088540000    -0.8156950000     0.8131130000
| 19>  H        0.6404020000     0.5248110000    -0.5049940000
| 20>  H        2.5131110000    -1.4032230000     1.3908320000
| 21>  H        9.2724720000    -0.8447920000     0.8417240000
| 22> *
| 23>
| 24>                          ****END OF INPUT****
 Total Charge           Charge          ....    0
 Multiplicity           Mult            ....    1
 Number of Electrons    NEL             ....   48
 Basis Dimension        Dim             ....  113

MULLIKEN ATOMIC CHARGES
-----------------------
   0 O :   -0.150273
   1 N :   -0.035629
   2 C :   -0.061925
   3 C :    0.037844
   4 C :    0.011387
   5 C :    0.356676
   6 C :   -0.396948
   7 H :    0.182109
   8 H :    0.038840
   9 H :    0.017917
Sum of atomic charges:   -0.0000000

LOEWDIN ATOMIC CHARGES
----------------------
   0 O :   -0.023825
   1 N :    0.012221
   2 C :   -0.052749
   3 C :   -0.007264
   4 C :   -0.035245
   5 C :   -0.028649
   6 C :   -0.015357
   7 H :    0.083549
   8 H :    0.025702
   9 H :    0.041616

  Mayer bond orders larger than 0.1
B(  0-O ,  1-N ) :   1.0284 B(  0-O ,  2-C ) :   0.1072 B(  0-O ,  7-H ) :   0.9704
B(  1-N ,  2-C ) :   1.7836 B(  2-C ,  3-C ) :   1.0161 B(  2-C ,  8-H ) :   0.9426
B(  3-C ,  4-C ) :   2.2547 B(  3-C ,  6-C ) :   0.2431 B(  4-C ,  5-C ) :   0.9644
B(  5-C ,  6-C ) :   2.1365 B(  5-C ,  9-H ) :  -0.1020 B(  6-C ,  9-H ) :   1.0916

FINAL SINGLE POINT ENERGY      -321.502884030056

DIPOLE MOMENT
-------------
                                X             Y             Z
Electronic contribution:      0.25550       0.21501      -0.21159
Nuclear contribution   :     -0.56392      -0.16472       0.16199
                        -----------------------------------------
Total Dipole Moment    :     -0.30843       0.05029      -0.04960
                        -----------------------------------------
Magnitude (a.u.)       :      0.31641
Magnitude (Debye)      :      0.80425

                             ****ORCA TERMINATED NORMALLY****
TOTAL RUN TIME: 0 days 0 hours 0 minutes 5 seconds 435 msec
