                         Program Version 3.0.3 - RELEASE   -
|  1> ! RI PBE def2-SVP def2-SVP/J NBO PAL2
|  2> % maxcore 2000
|  3> % output
|  4>     # printlevel mini
|  5>     print[ P_Basis ] 0
|  6>     print[ P_SCFInfo ] 1
|  7>     print[ P_SCFIterInfo ] 1
|  8>     print[ P_OrbEn ] 0
|  9>     print[ P_Cartesian ] 0
| 10> end
| 11> *xyz 0 1
| 12>  O        0.7468640000     0.5834800000     0.6628620000
| 13>  N        2.1222960000     0.5001950000     0.8085990000
| 14>  C        2.7324400000     1.0734640000    -0.1407060000
| 15>  C        4.2204680000     1.0922070000    -0.1572810000
| 16>  C        4.8025620000     2.5123510000    -0.1714200000
| 17>  C        4.4918120000     3.2666250000    -1.4220270000
| 18>  C        3.8331700000     4.4154660000    -1.4812050000
| 19>  H        0.4196210000     0.1165860000     1.4364040000
| 20>  H        2.1750430000     1.5640110000    -0.9412390000
| 21>  H        4.5734350000     0.5569050000    -1.0478830000
| 22>  H        4.5832050000     0.5447320000     0.7150770000
| 23>  H        5.8906470000     2.4270370000    -0.0676740000
| 24>  H        4.4415740000     3.0671270000     0.6994000000
| 25>  H        4.8439450000     2.8138220000    -2.3486650000
| 26>  H        3.4610500000     4.9013700000    -0.5842690000
| 27>  H        3.6447560000     4.9142430000    -2.4248640000
| 28> *
| 29>
| 30>                          ****END OF INPUT****
 Total Charge           Charge          ....    0
 Multiplicity           Mult            ....    1
 Number of Electrons    NEL             ....   54
 Basis Dimension        Dim             ....  143

MULLIKEN ATOMIC CHARGES
-----------------------
   0 O :   -0.180796
   1 N :   -0.044516
   2 C :   -0.054010
   3 C :    0.037119
   4 C :    0.056555
   5 C :   -0.105158
   6 C :   -0.025364
   7 H :    0.169400
   8 H :    0.007628
   9 H :    0.030015
  10 H :    0.017268
  11 H :    0.031722
  12 H :    0.011577
  13 H :    0.003937
  14 H :    0.019286
  15 H :    0.025337
Sum of atomic charges:    0.0000000

LOEWDIN ATOMIC CHARGES
----------------------
   0 O :   -0.058640
   1 N :   -0.017217
   2 C :   -0.033801
   3 C :   -0.043880
   4 C :   -0.037533
   5 C :   -0.035267
   6 C :   -0.062679
   7 H :    0.071901
   8 H :    0.006409
   9 H :    0.035179
  10 H :    0.034060
  11 H :    0.038894
  12 H :    0.029885
  13 H :    0.024760
  14 H :    0.022852
  15 H :    0.025075

  Mayer bond orders larger than 0.1
B(  0-O ,  1-N ) :   0.9913 B(  0-O ,  2-C ) :   0.1109 B(  0-O ,  7-H ) :   0.9765
B(  1-N ,  2-C ) :   1.9126 B(  2-C ,  3-C ) :   1.0445 B(  2-C ,  8-H ) :   0.9408
B(  3-C ,  4-C ) :   1.0612 B(  3-C ,  9-H ) :   0.9214 B(  3-C , 10-H ) :   0.9170
B(  4-C ,  5-C ) :   1.0629 B(  4-C , 11-H ) :   0.9121 B(  4-C , 12-H ) :   0.9272
B(  5-C ,  6-C ) :   2.0088 B(  5-C , 13-H ) :   0.9564 B(  6-C , 14-H ) :   0.9458
B(  6-C , 15-H ) :   0.9439

FINAL SINGLE POINT ENERGY      -325.190558778994

DIPOLE MOMENT
-------------
                                X             Y             Z
Electronic contribution:     -4.72538      -3.80118       2.31329
Nuclear contribution   :      4.87245       3.75519      -2.28841
                        -----------------------------------------
Total Dipole Moment    :      0.14706      -0.04599       0.02488
                        -----------------------------------------
Magnitude (a.u.)       :      0.15608
Magnitude (Debye)      :      0.39673

                             ****ORCA TERMINATED NORMALLY****
TOTAL RUN TIME: 0 days 0 hours 0 minutes 6 seconds 871 msec
