                         Program Version 3.0.3 - RELEASE   -
|  1> ! RI PBE def2-SVP def2-SVP/J NBO PAL2
|  2> % maxcore 2000
|  3> % output
|  4>     # printlevel mini
|  5>     print[ P_Basis ] 0
|  6>     print[ P_SCFInfo ] 1
|  7>     print[ P_SCFIterInfo ] 1
|  8>     print[ P_OrbEn ] 0
|  9>     print[ P_Cartesian ] 0
| 10> end
| 11> *xyz 0 1
| 12>  O        0.9913240000     1.1313550000     0.8245260000
| 13>  N        2.3647030000     0.9634030000     0.8225990000
| 14>  C        2.8748330000     1.2570900000    -0.2978660000
| 15>  C        4.3455020000     1.1363450000    -0.4875520000
| 16>  C        5.0101140000     2.4666120000    -0.8731690000
| 17>  C        4.5458220000     2.9949560000    -2.1454680000
| 18>  C        4.1529710000     3.4119240000    -3.2005450000
| 19>  H        0.7430520000     0.8763520000     1.7172690000
| 20>  H        2.2506470000     1.6038910000    -1.1235460000
| 21>  H        4.5487430000     0.4043410000    -1.2766000000
| 22>  H        4.7882720000     0.7636390000     0.4380510000
| 23>  H        6.0937840000     2.3212130000    -0.9233940000
| 24>  H        4.8292750000     3.2064090000    -0.0866800000
| 25>  H        3.8087580000     3.7891510000    -4.1343240000
| 26> *
| 27>
| 28>                          ****END OF INPUT****
 Total Charge           Charge          ....    0
 Multiplicity           Mult            ....    1
 Number of Electrons    NEL             ....   52
 Basis Dimension        Dim             ....  133

MULLIKEN ATOMIC CHARGES
-----------------------
   0 O :   -0.178547
   1 N :   -0.043537
   2 C :   -0.058148
   3 C :    0.048333
   4 C :    0.052303
   5 C :    0.306881
   6 C :   -0.475985
   7 H :    0.171026
   8 H :    0.016710
   9 H :    0.042943
  10 H :    0.018859
  11 H :    0.048354
  12 H :    0.051560
  13 H :   -0.000754
Sum of atomic charges:   -0.0000000

LOEWDIN ATOMIC CHARGES
----------------------
   0 O :   -0.055551
   1 N :   -0.015911
   2 C :   -0.033846
   3 C :   -0.036669
   4 C :   -0.044450
   5 C :   -0.025715
   6 C :   -0.088073
   7 H :    0.073113
   8 H :    0.010604
   9 H :    0.040977
  10 H :    0.035617
  11 H :    0.052986
  12 H :    0.051910
  13 H :    0.035008

  Mayer bond orders larger than 0.1
B(  0-O ,  1-N ) :   0.9960 B(  0-O ,  2-C ) :   0.1115 B(  0-O ,  7-H ) :   0.9760
B(  1-N ,  2-C ) :   1.9117 B(  2-C ,  3-C ) :   1.0460 B(  2-C ,  8-H ) :   0.9430
B(  3-C ,  4-C ) :   1.0666 B(  3-C ,  9-H ) :   0.9217 B(  3-C , 10-H ) :   0.9144
B(  4-C ,  5-C ) :   1.0798 B(  4-C , 11-H ) :   0.8940 B(  4-C , 12-H ) :   0.8958
B(  5-C ,  6-C ) :   2.3456 B(  5-C , 13-H ) :  -0.1078 B(  6-C , 13-H ) :   1.0990

FINAL SINGLE POINT ENERGY      -323.947693885975

DIPOLE MOMENT
-------------
                                X             Y             Z
Electronic contribution:     -3.06712      -0.07102       0.83640
Nuclear contribution   :      3.19282      -0.02344      -0.64043
                        -----------------------------------------
Total Dipole Moment    :      0.12569      -0.09446       0.19597
                        -----------------------------------------
Magnitude (a.u.)       :      0.25125
Magnitude (Debye)      :      0.63862

                             ****ORCA TERMINATED NORMALLY****
TOTAL RUN TIME: 0 days 0 hours 0 minutes 5 seconds 964 msec
