                         Program Version 3.0.3 - RELEASE   -
|  1> ! RI PBE def2-SVP def2-SVP/J NBO PAL2
|  2> % maxcore 2000
|  3> % output
|  4>     # printlevel mini
|  5>     print[ P_Basis ] 0
|  6>     print[ P_SCFInfo ] 1
|  7>     print[ P_SCFIterInfo ] 1
|  8>     print[ P_OrbEn ] 0
|  9>     print[ P_Cartesian ] 0
| 10> end
| 11> *xyz 0 1
| 12>  O        1.1071160000     0.1432900000    -0.1508400000
| 13>  N        2.4664560000     0.1352860000    -0.0903490000
| 14>  C        2.9246640000    -0.8512800000     0.5946880000
| 15>  C        2.1471840000    -1.8869750000     1.2628010000
| 16>  C        2.6992760000    -2.8796230000     1.9556700000
| 17>  C        4.3566280000    -0.8926880000     0.6805390000
| 18>  N        5.4988080000    -0.9803600000     0.7859640000
| 19>  H        0.9154330000     0.9212450000    -0.6841660000
| 20>  H        1.0726680000    -1.8030370000     1.1625990000
| 21>  H        3.7747950000    -2.9737400000     2.0627910000
| 22>  H        2.0834820000    -3.6291180000     2.4370130000
| 23> *
| 24>
| 25>                          ****END OF INPUT****
 Total Charge           Charge          ....    0
 Multiplicity           Mult            ....    1
 Number of Electrons    NEL             ....   50
 Basis Dimension        Dim             ....  118

MULLIKEN ATOMIC CHARGES
-----------------------
   0 O :   -0.138415
   1 N :    0.000972
   2 C :   -0.169220
   3 C :    0.058368
   4 C :    0.000993
   5 C :   -0.116999
   6 N :    0.072415
   7 H :    0.189119
   8 H :    0.007682
   9 H :    0.053067
  10 H :    0.042017
Sum of atomic charges:    0.0000000

LOEWDIN ATOMIC CHARGES
----------------------
   0 O :   -0.012032
   1 N :    0.019625
   2 C :   -0.094354
   3 C :   -0.039133
   4 C :   -0.001063
   5 C :   -0.030781
   6 N :   -0.041426
   7 H :    0.089308
   8 H :    0.038420
   9 H :    0.036335
  10 H :    0.035100

  Mayer bond orders larger than 0.1
B(  0-O ,  1-N ) :   1.0496 B(  0-O ,  2-C ) :   0.1001 B(  0-O ,  7-H ) :   0.9668
B(  1-N ,  2-C ) :   1.7769 B(  1-N ,  4-C ) :   0.1037 B(  2-C ,  3-C ) :   1.0955
B(  2-C ,  5-C ) :   1.1093 B(  3-C ,  4-C ) :   1.8791 B(  3-C ,  8-H ) :   0.9520
B(  4-C ,  9-H ) :   0.9317 B(  4-C , 10-H ) :   0.9373 B(  5-C ,  6-N ) :   2.9923

FINAL SINGLE POINT ENERGY      -338.809874119196

DIPOLE MOMENT
-------------
                                X             Y             Z
Electronic contribution:      2.11801       3.25804      -2.11414
Nuclear contribution   :     -3.70130      -3.27747       2.06408
                        -----------------------------------------
Total Dipole Moment    :     -1.58329      -0.01942      -0.05006
                        -----------------------------------------
Magnitude (a.u.)       :      1.58420
Magnitude (Debye)      :      4.02671

                             ****ORCA TERMINATED NORMALLY****
TOTAL RUN TIME: 0 days 0 hours 0 minutes 5 seconds 528 msec
