                         Program Version 3.0.3 - RELEASE   -
|  1> ! RI PBE def2-SVP def2-SVP/J NBO PAL2
|  2> % maxcore 2000
|  3> % output
|  4>     # printlevel mini
|  5>     print[ P_Basis ] 0
|  6>     print[ P_SCFInfo ] 1
|  7>     print[ P_SCFIterInfo ] 1
|  8>     print[ P_OrbEn ] 0
|  9>     print[ P_Cartesian ] 0
| 10> end
| 11> *xyz 0 1
| 12>  O        0.9172550000    -0.0132450000    -0.0975400000
| 13>  N        2.2627760000    -0.0300050000    -0.0151730000
| 14>  C        2.8292860000     0.2008910000    -1.1475140000
| 15>  C        2.1617680000     0.4512410000    -2.3754630000
| 16>  C        1.6142180000     0.6646430000    -3.4220490000
| 17>  C        4.2623880000     0.1988420000    -1.1372920000
| 18>  N        5.4121050000     0.2058450000    -1.1714690000
| 19>  H        0.6333810000    -0.1972770000     0.8049730000
| 20>  H        1.1255230000     0.8540640000    -4.3494720000
| 21> *
| 22>
| 23>                          ****END OF INPUT****
 Total Charge           Charge          ....    0
 Multiplicity           Mult            ....    1
 Number of Electrons    NEL             ....   48
 Basis Dimension        Dim             ....  108

MULLIKEN ATOMIC CHARGES
-----------------------
   0 O :   -0.114464
   1 N :    0.005214
   2 C :   -0.190143
   3 C :    0.513332
   4 C :   -0.441495
   5 C :   -0.077480
   6 N :    0.087898
   7 H :    0.192356
   8 H :    0.024784
Sum of atomic charges:   -0.0000000

LOEWDIN ATOMIC CHARGES
----------------------
   0 O :    0.010173
   1 N :    0.032875
   2 C :   -0.106052
   3 C :   -0.022683
   4 C :    0.002018
   5 C :   -0.026496
   6 N :   -0.028756
   7 H :    0.092707
   8 H :    0.046214

  Mayer bond orders larger than 0.1
B(  0-O ,  1-N ) :   1.0898 B(  0-O ,  2-C ) :   0.1013 B(  0-O ,  7-H ) :   0.9649
B(  1-N ,  2-C ) :   1.7929 B(  1-N ,  4-C ) :   0.1087 B(  2-C ,  3-C ) :   0.9488
B(  2-C ,  5-C ) :   1.1071 B(  3-C ,  4-C ) :   2.2139 B(  3-C ,  8-H ) :  -0.1027
B(  4-C ,  8-H ) :   1.0917 B(  5-C ,  6-N ) :   3.0149

FINAL SINGLE POINT ENERGY      -337.556629845546

DIPOLE MOMENT
-------------
                                X             Y             Z
Electronic contribution:      1.73307      -0.19484       0.95880
Nuclear contribution   :     -3.43963       0.18996      -0.93057
                        -----------------------------------------
Total Dipole Moment    :     -1.70655      -0.00488       0.02823
                        -----------------------------------------
Magnitude (a.u.)       :      1.70679
Magnitude (Debye)      :      4.33832

                             ****ORCA TERMINATED NORMALLY****
TOTAL RUN TIME: 0 days 0 hours 0 minutes 4 seconds 935 msec
