                         Program Version 3.0.3 - RELEASE   -
|  1> ! RI PBE def2-SVP def2-SVP/J NBO PAL2
|  2> % maxcore 2000
|  3> % output
|  4>     # printlevel mini
|  5>     print[ P_Basis ] 0
|  6>     print[ P_SCFInfo ] 1
|  7>     print[ P_SCFIterInfo ] 1
|  8>     print[ P_OrbEn ] 0
|  9>     print[ P_Cartesian ] 0
| 10> end
| 11> *xyz 0 1
| 12>  O        0.9780400000     0.3236050000    -0.3255980000
| 13>  N        2.3352540000     0.4276880000    -0.2376390000
| 14>  C        2.9271470000    -0.4359050000    -0.9674420000
| 15>  C        4.3648070000    -0.4511370000    -0.9803140000
| 16>  C        5.0730390000    -1.3207320000    -1.7151870000
| 17>  C        6.4898150000    -1.3360650000    -1.7281450000
| 18>  N        7.6420490000    -1.3684380000    -1.7555020000
| 19>  H        0.6579780000     1.0169430000     0.2603260000
| 20>  H        2.3602710000    -1.1477210000    -1.5689790000
| 21>  H        4.8661410000     0.2836540000    -0.3593600000
| 22>  H        4.5798810000    -2.0594510000    -2.3394600000
| 23> *
| 24>
| 25>                          ****END OF INPUT****
 Total Charge           Charge          ....    0
 Multiplicity           Mult            ....    1
 Number of Electrons    NEL             ....   50
 Basis Dimension        Dim             ....  118

MULLIKEN ATOMIC CHARGES
-----------------------
   0 O :   -0.143186
   1 N :   -0.032760
   2 C :    0.010115
   3 C :    0.059535
   4 C :   -0.126431
   5 C :   -0.089213
   6 N :    0.047799
   7 H :    0.183927
   8 H :    0.007869
   9 H :    0.032630
  10 H :    0.049714
Sum of atomic charges:    0.0000000

LOEWDIN ATOMIC CHARGES
----------------------
   0 O :   -0.018020
   1 N :    0.005316
   2 C :   -0.037016
   3 C :    0.012671
   4 C :   -0.067505
   5 C :   -0.042877
   6 N :   -0.051536
   7 H :    0.084865
   8 H :    0.015467
   9 H :    0.047135
  10 H :    0.051500

  Mayer bond orders larger than 0.1
B(  0-O ,  1-N ) :   1.0325 B(  0-O ,  2-C ) :   0.1048 B(  0-O ,  7-H ) :   0.9690
B(  1-N ,  2-C ) :   1.7597 B(  1-N ,  4-C ) :   0.1031 B(  2-C ,  3-C ) :   1.1363
B(  2-C ,  8-H ) :   0.9516 B(  3-C ,  4-C ) :   1.6926 B(  3-C ,  9-H ) :   0.9654
B(  4-C ,  5-C ) :   1.1301 B(  4-C , 10-H ) :   0.9491 B(  5-C ,  6-N ) :   2.9507

FINAL SINGLE POINT ENERGY      -338.819151103174

DIPOLE MOMENT
-------------
                                X             Y             Z
Electronic contribution:      1.91139       0.02013       0.01868
Nuclear contribution   :     -3.74704       0.27483       0.23226
                        -----------------------------------------
Total Dipole Moment    :     -1.83565       0.29496       0.25093
                        -----------------------------------------
Magnitude (a.u.)       :      1.87605
Magnitude (Debye)      :      4.76855

                             ****ORCA TERMINATED NORMALLY****
TOTAL RUN TIME: 0 days 0 hours 0 minutes 4 seconds 961 msec
