                         Program Version 3.0.3 - RELEASE   -
|  1> ! RI PBE def2-SVP def2-SVP/J NBO PAL2
|  2> % maxcore 2000
|  3> % output
|  4>     # printlevel mini
|  5>     print[ P_Basis ] 0
|  6>     print[ P_SCFInfo ] 1
|  7>     print[ P_SCFIterInfo ] 1
|  8>     print[ P_OrbEn ] 0
|  9>     print[ P_Cartesian ] 0
| 10> end
| 11> *xyz 0 1
| 12>  O        0.9571240000     0.5805520000     0.3655960000
| 13>  N        2.2789270000     0.2529840000     0.2373570000
| 14>  C        3.0154780000     1.2814550000     0.1390350000
| 15>  C        4.4701090000     1.1351030000    -0.0080010000
| 16>  C        5.1250240000    -0.0299850000    -0.0529130000
| 17>  C        5.2004320000     2.3629050000    -0.1071540000
| 18>  N        5.7674740000     3.3620080000    -0.1850510000
| 19>  H        0.5179190000    -0.2730460000     0.4297480000
| 20>  H        2.5903190000     2.2842520000     0.1606020000
| 21>  H        4.5813280000    -0.9629520000     0.0210500000
| 22>  H        6.2005860000    -0.0595660000    -0.1629800000
| 23> *
| 24>
| 25>                          ****END OF INPUT****
 Total Charge           Charge          ....    0
 Multiplicity           Mult            ....    1
 Number of Electrons    NEL             ....   50
 Basis Dimension        Dim             ....  118

MULLIKEN ATOMIC CHARGES
-----------------------
   0 O :   -0.145549
   1 N :   -0.025400
   2 C :    0.046366
   3 C :   -0.132720
   4 C :    0.037025
   5 C :   -0.123608
   6 N :    0.057883
   7 H :    0.181732
   8 H :    0.012681
   9 H :    0.044125
  10 H :    0.047466
Sum of atomic charges:   -0.0000000

LOEWDIN ATOMIC CHARGES
----------------------
   0 O :   -0.021164
   1 N :    0.004733
   2 C :   -0.026831
   3 C :   -0.083007
   4 C :    0.026435
   5 C :   -0.032178
   6 N :   -0.046970
   7 H :    0.082867
   8 H :    0.020338
   9 H :    0.035648
  10 H :    0.040130

  Mayer bond orders larger than 0.1
B(  0-O ,  1-N ) :   1.0277 B(  0-O ,  2-C ) :   0.1151 B(  0-O ,  7-H ) :   0.9703
B(  1-N ,  2-C ) :   1.8569 B(  2-C ,  3-C ) :   1.0563 B(  2-C ,  8-H ) :   0.9474
B(  3-C ,  4-C ) :   1.8793 B(  3-C ,  5-C ) :   1.0821 B(  4-C ,  6-N ) :   0.1088
B(  4-C ,  9-H ) :   0.9230 B(  4-C , 10-H ) :   0.9361 B(  5-C ,  6-N ) :   2.9979

FINAL SINGLE POINT ENERGY      -338.808374229686

DIPOLE MOMENT
-------------
                                X             Y             Z
Electronic contribution:      0.01261       2.33134      -0.04625
Nuclear contribution   :     -0.90709      -3.68272       0.16351
                        -----------------------------------------
Total Dipole Moment    :     -0.89448      -1.35138       0.11726
                        -----------------------------------------
Magnitude (a.u.)       :      1.62483
Magnitude (Debye)      :      4.12999

                             ****ORCA TERMINATED NORMALLY****
TOTAL RUN TIME: 0 days 0 hours 0 minutes 5 seconds 303 msec
