                         Program Version 3.0.3 - RELEASE   -
|  1> ! RI PBE def2-SVP def2-SVP/J NBO PAL2
|  2> % maxcore 2000
|  3> % output
|  4>     # printlevel mini
|  5>     print[ P_Basis ] 0
|  6>     print[ P_SCFInfo ] 1
|  7>     print[ P_SCFIterInfo ] 1
|  8>     print[ P_OrbEn ] 0
|  9>     print[ P_Cartesian ] 0
| 10> end
| 11> *xyz 0 1
| 12>  O        1.0214640000     0.1832460000     0.0642110000
| 13>  N        2.3647700000    -0.0066420000    -0.0084000000
| 14>  C        3.0027530000     1.0271910000     0.3869350000
| 15>  C        4.4126720000     1.0138760000     0.3818460000
| 16>  C        5.6189490000     1.0684890000     0.4027340000
| 17>  C        6.9825320000     1.1154160000     0.4206810000
| 18>  N        8.1373550000     1.1578830000     0.4369300000
| 19>  H        0.6552840000    -0.6487260000    -0.2539330000
| 20>  H        2.4828120000     1.9224680000     0.7292860000
| 21> *
| 22>
| 23>                          ****END OF INPUT****
 Total Charge           Charge          ....    0
 Multiplicity           Mult            ....    1
 Number of Electrons    NEL             ....   48
 Basis Dimension        Dim             ....  108

MULLIKEN ATOMIC CHARGES
-----------------------
   0 O :   -0.136795
   1 N :   -0.020127
   2 C :   -0.065237
   3 C :   -0.022965
   4 C :    0.045068
   5 C :   -0.135721
   6 N :    0.096523
   7 H :    0.189049
   8 H :    0.050204
Sum of atomic charges:    0.0000000

LOEWDIN ATOMIC CHARGES
----------------------
   0 O :   -0.008824
   1 N :    0.026381
   2 C :   -0.051654
   3 C :    0.031511
   4 C :   -0.055669
   5 C :   -0.045802
   6 N :   -0.016944
   7 H :    0.089234
   8 H :    0.031767

  Mayer bond orders larger than 0.1
B(  0-O ,  1-N ) :   1.0471 B(  0-O ,  2-C ) :   0.1112 B(  0-O ,  7-H ) :   0.9670
B(  1-N ,  2-C ) :   1.7807 B(  2-C ,  3-C ) :   1.0228 B(  2-C ,  8-H ) :   0.9400
B(  3-C ,  4-C ) :   2.2618 B(  3-C ,  5-C ) :  -0.1034 B(  3-C ,  6-N ) :   0.1818
B(  4-C ,  5-C ) :   1.0223 B(  5-C ,  6-N ) :   2.8532

FINAL SINGLE POINT ENERGY      -337.572615980530

DIPOLE MOMENT
-------------
                                X             Y             Z
Electronic contribution:      3.22857       0.04746       0.01908
Nuclear contribution   :     -5.21316      -0.23334      -0.08924
                        -----------------------------------------
Total Dipole Moment    :     -1.98458      -0.18588      -0.07015
                        -----------------------------------------
Magnitude (a.u.)       :      1.99450
Magnitude (Debye)      :      5.06962

                             ****ORCA TERMINATED NORMALLY****
TOTAL RUN TIME: 0 days 0 hours 0 minutes 4 seconds 792 msec
