                         Program Version 3.0.3 - RELEASE   -
|  1> ! RI PBE def2-SVP def2-SVP/J NBO PAL2
|  2> % maxcore 2000
|  3> % output
|  4>     # printlevel mini
|  5>     print[ P_Basis ] 0
|  6>     print[ P_SCFInfo ] 1
|  7>     print[ P_SCFIterInfo ] 1
|  8>     print[ P_OrbEn ] 0
|  9>     print[ P_Cartesian ] 0
| 10> end
| 11> *xyz 0 1
| 12>  O        0.8715420000     1.2576900000    -0.1365260000
| 13>  N        2.2495530000     1.2736980000    -0.1767970000
| 14>  C        2.7615760000     0.8173530000     0.8870240000
| 15>  C        4.2444130000     0.7615750000     1.0101780000
| 16>  C        4.7842500000     1.6329840000     2.1533240000
| 17>  C        4.3033120000     1.2095700000     3.4596160000
| 18>  N        3.9142550000     0.8555430000     4.4818360000
| 19>  H        0.6220340000     1.6194030000    -0.9916180000
| 20>  H        2.1329230000     0.4711560000     1.7099800000
| 21>  H        4.6869590000     1.0985450000     0.0714630000
| 22>  H        4.5589990000    -0.2735010000     1.1782100000
| 23>  H        4.4970490000     2.6770640000     2.0010420000
| 24>  H        5.8769440000     1.5957200000     2.1655480000
| 25> *
| 26>
| 27>                          ****END OF INPUT****
 Total Charge           Charge          ....    0
 Multiplicity           Mult            ....    1
 Number of Electrons    NEL             ....   52
 Basis Dimension        Dim             ....  128

MULLIKEN ATOMIC CHARGES
-----------------------
   0 O :   -0.172327
   1 N :   -0.037200
   2 C :   -0.065925
   3 C :    0.051233
   4 C :    0.047396
   5 C :   -0.288778
   6 N :    0.052408
   7 H :    0.174755
   8 H :    0.028235
   9 H :    0.028473
  10 H :    0.050051
  11 H :    0.065615
  12 H :    0.066065
Sum of atomic charges:   -0.0000000

LOEWDIN ATOMIC CHARGES
----------------------
   0 O :   -0.048364
   1 N :   -0.010366
   2 C :   -0.038343
   3 C :   -0.030970
   4 C :   -0.054842
   5 C :   -0.050971
   6 N :   -0.062745
   7 H :    0.076199
   8 H :    0.014127
   9 H :    0.039616
  10 H :    0.043677
  11 H :    0.060806
  12 H :    0.062176

  Mayer bond orders larger than 0.1
B(  0-O ,  1-N ) :   1.0053 B(  0-O ,  2-C ) :   0.1148 B(  0-O ,  7-H ) :   0.9743
B(  1-N ,  2-C ) :   1.9114 B(  2-C ,  3-C ) :   1.0428 B(  2-C ,  8-H ) :   0.9429
B(  3-C ,  4-C ) :   1.0765 B(  3-C ,  9-H ) :   0.9163 B(  3-C , 10-H ) :   0.9234
B(  4-C ,  5-C ) :   1.1223 B(  4-C , 11-H ) :   0.8906 B(  4-C , 12-H ) :   0.8900
B(  5-C ,  6-N ) :   3.0443

FINAL SINGLE POINT ENERGY      -340.026649789267

DIPOLE MOMENT
-------------
                                X             Y             Z
Electronic contribution:     -2.40789      -0.03923       1.78458
Nuclear contribution   :      2.81620       0.41660      -3.12873
                        -----------------------------------------
Total Dipole Moment    :      0.40832       0.37737      -1.34415
                        -----------------------------------------
Magnitude (a.u.)       :      1.45460
Magnitude (Debye)      :      3.69730

                             ****ORCA TERMINATED NORMALLY****
TOTAL RUN TIME: 0 days 0 hours 0 minutes 5 seconds 325 msec
