                         Program Version 3.0.3 - RELEASE   -
|  1> ! RI PBE def2-SVP def2-SVP/J NBO PAL2
|  2> % maxcore 2000
|  3> % output
|  4>     # printlevel mini
|  5>     print[ P_Basis ] 0
|  6>     print[ P_SCFInfo ] 1
|  7>     print[ P_SCFIterInfo ] 1
|  8>     print[ P_OrbEn ] 0
|  9>     print[ P_Cartesian ] 0
| 10> end
| 11> *xyz 0 1
| 12>  O        2.2244360000     0.3617080000     1.2198060000
| 13>  N        1.6541190000    -0.2237740000     0.0853590000
| 14>  C        2.5133680000    -1.2871780000    -0.4239170000
| 15>  C        1.8104000000    -2.1310310000    -1.4350410000
| 16>  C        2.2993440000    -2.4173940000    -2.6324020000
| 17>  C        1.1725850000     0.7188710000    -0.8155060000
| 18>  N        0.9621770000     1.9494160000    -0.6267000000
| 19>  H        1.6315360000     0.1182260000     1.9387690000
| 20>  H        2.7681730000    -1.9036110000     0.4429860000
| 21>  H        3.4515100000    -0.8885160000    -0.8315020000
| 22>  H        0.8531100000    -2.5426800000    -1.1237960000
| 23>  H        3.2473900000    -2.0103280000    -2.9697710000
| 24>  H        1.7726980000    -3.0720500000    -3.3165900000
| 25>  H        0.9205250000     0.2569530000    -1.7706570000
| 26>  H        1.2767270000     2.2193990000     0.3056610000
| 27> *
| 28>
| 29>                          ****END OF INPUT****
 Total Charge           Charge          ....    0
 Multiplicity           Mult            ....    1
 Number of Electrons    NEL             ....   54
 Basis Dimension        Dim             ....  138

MULLIKEN ATOMIC CHARGES
-----------------------
   0 O :   -0.198398
   1 N :   -0.173612
   2 C :    0.227054
   3 C :   -0.121289
   4 C :   -0.015504
   5 C :    0.012987
   6 N :   -0.126015
   7 H :    0.188157
   8 H :    0.023431
   9 H :    0.011356
  10 H :    0.012908
  11 H :    0.025836
  12 H :    0.037124
  13 H :    0.020877
  14 H :    0.075088
Sum of atomic charges:   -0.0000000

LOEWDIN ATOMIC CHARGES
----------------------
   0 O :   -0.060369
   1 N :    0.000785
   2 C :    0.019987
   3 C :   -0.040803
   4 C :   -0.046004
   5 C :   -0.001703
   6 N :   -0.144617
   7 H :    0.079562
   8 H :    0.035052
   9 H :    0.019335
  10 H :    0.029295
  11 H :    0.025983
  12 H :    0.029969
  13 H :    0.018685
  14 H :    0.034843

  Mayer bond orders larger than 0.1
B(  0-O ,  1-N ) :   0.9520 B(  0-O ,  7-H ) :   0.9707 B(  1-N ,  2-C ) :   0.9301
B(  1-N ,  5-C ) :   1.0568 B(  2-C ,  3-C ) :   1.0585 B(  2-C ,  8-H ) :   0.9160
B(  2-C ,  9-H ) :   0.9231 B(  3-C ,  4-C ) :   1.9817 B(  3-C , 10-H ) :   0.9553
B(  4-C , 11-H ) :   0.9472 B(  4-C , 12-H ) :   0.9462 B(  5-C ,  6-N ) :   2.0429
B(  5-C , 13-H ) :   0.9315 B(  6-N , 14-H ) :   0.9286

FINAL SINGLE POINT ENERGY      -341.201446187374

DIPOLE MOMENT
-------------
                                X             Y             Z
Electronic contribution:     -1.07063       3.15927       3.01384
Nuclear contribution   :      1.30054      -4.36161      -2.40456
                        -----------------------------------------
Total Dipole Moment    :      0.22990      -1.20234       0.60928
                        -----------------------------------------
Magnitude (a.u.)       :      1.36737
Magnitude (Debye)      :      3.47558

                             ****ORCA TERMINATED NORMALLY****
TOTAL RUN TIME: 0 days 0 hours 0 minutes 6 seconds 872 msec
