                         Program Version 3.0.3 - RELEASE   -
|  1> ! RI PBE def2-SVP def2-SVP/J NBO PAL2
|  2> % maxcore 2000
|  3> % output
|  4>     # printlevel mini
|  5>     print[ P_Basis ] 0
|  6>     print[ P_SCFInfo ] 1
|  7>     print[ P_SCFIterInfo ] 1
|  8>     print[ P_OrbEn ] 0
|  9>     print[ P_Cartesian ] 0
| 10> end
| 11> *xyz 0 1
| 12>  O        1.2397530000     0.4638440000    -0.1362180000
| 13>  N        2.4294260000    -0.2646240000    -0.0598050000
| 14>  C        3.2371220000     0.2700880000     1.0350440000
| 15>  C        4.4472630000    -0.5009230000     1.2617340000
| 16>  C        5.4519840000    -1.1189950000     1.4761940000
| 17>  C        3.0376980000    -0.4264540000    -1.3036730000
| 18>  N        2.5326870000    -0.2441630000    -2.4450360000
| 19>  H        0.5558460000    -0.1701990000     0.1052800000
| 20>  H        2.6169790000     0.2358620000     1.9340240000
| 21>  H        3.4923250000     1.3235610000     0.8548620000
| 22>  H        6.3438480000    -1.6700270000     1.6620670000
| 23>  H        4.0524030000    -0.8101440000    -1.1989300000
| 24>  H        1.5896560000     0.1354840000    -2.3572350000
| 25> *
| 26>
| 27>                          ****END OF INPUT****
 Total Charge           Charge          ....    0
 Multiplicity           Mult            ....    1
 Number of Electrons    NEL             ....   52
 Basis Dimension        Dim             ....  128

MULLIKEN ATOMIC CHARGES
-----------------------
   0 O :   -0.195499
   1 N :   -0.172639
   2 C :    0.254533
   3 C :    0.284595
   4 C :   -0.453358
   5 C :    0.007937
   6 N :   -0.120960
   7 H :    0.191498
   8 H :    0.037710
   9 H :    0.044463
  10 H :    0.010195
  11 H :    0.033274
  12 H :    0.078251
Sum of atomic charges:   -0.0000000

LOEWDIN ATOMIC CHARGES
----------------------
   0 O :   -0.057792
   1 N :    0.002849
   2 C :    0.015642
   3 C :   -0.035950
   4 C :   -0.055334
   5 C :    0.000653
   6 N :   -0.138597
   7 H :    0.082174
   8 H :    0.046988
   9 H :    0.039554
  10 H :    0.039844
  11 H :    0.023649
  12 H :    0.036320

  Mayer bond orders larger than 0.1
B(  0-O ,  1-N ) :   0.9611 B(  0-O ,  7-H ) :   0.9697 B(  1-N ,  2-C ) :   0.9331
B(  1-N ,  5-C ) :   1.0417 B(  2-C ,  3-C ) :   1.0326 B(  2-C ,  8-H ) :   0.9039
B(  2-C ,  9-H ) :   0.8946 B(  3-C ,  4-C ) :   2.3576 B(  3-C , 10-H ) :  -0.1059
B(  4-C , 10-H ) :   1.0966 B(  5-C ,  6-N ) :   2.0522 B(  5-C , 11-H ) :   0.9319
B(  6-N , 12-H ) :   0.9294

FINAL SINGLE POINT ENERGY      -339.954153060641

DIPOLE MOMENT
-------------
                                X             Y             Z
Electronic contribution:     -0.47613      -0.44954      -0.05095
Nuclear contribution   :      0.11268       0.37597       1.30274
                        -----------------------------------------
Total Dipole Moment    :     -0.36345      -0.07357       1.25179
                        -----------------------------------------
Magnitude (a.u.)       :      1.30556
Magnitude (Debye)      :      3.31847

                             ****ORCA TERMINATED NORMALLY****
TOTAL RUN TIME: 0 days 0 hours 0 minutes 6 seconds 373 msec
