                         Program Version 3.0.3 - RELEASE   -
|  1> ! RI PBE def2-SVP def2-SVP/J NBO PAL2
|  2> % maxcore 2000
|  3> % output
|  4>     # printlevel mini
|  5>     print[ P_Basis ] 0
|  6>     print[ P_SCFInfo ] 1
|  7>     print[ P_SCFIterInfo ] 1
|  8>     print[ P_OrbEn ] 0
|  9>     print[ P_Cartesian ] 0
| 10> end
| 11> *xyz 0 1
| 12>  O        1.1552480000     0.0522480000    -0.2143810000
| 13>  N        2.5117240000     0.0699570000    -0.1599010000
| 14>  C        2.9932380000    -0.2002860000     1.0046590000
| 15>  C        2.2008490000    -0.5038220000     2.1866080000
| 16>  C        2.6981960000    -0.7827430000     3.3909300000
| 17>  C        4.4769130000    -0.1544800000     0.9551780000
| 18>  O        5.2179060000    -0.3607710000     1.8798930000
| 19>  H        0.9652740000     0.2696130000    -1.1326230000
| 20>  H        1.1276160000    -0.4923410000     2.0355700000
| 21>  H        3.7627410000    -0.8035810000     3.5799910000
| 22>  H        2.0275930000    -0.9971580000     4.2151340000
| 23>  H        4.8546030000     0.0978640000    -0.0546590000
| 24> *
| 25>
| 26>                          ****END OF INPUT****
 Total Charge           Charge          ....    0
 Multiplicity           Mult            ....    1
 Number of Electrons    NEL             ....   52
 Basis Dimension        Dim             ....  123

MULLIKEN ATOMIC CHARGES
-----------------------
   0 O :   -0.133045
   1 N :   -0.021366
   2 C :   -0.103680
   3 C :   -0.006804
   4 C :   -0.004363
   5 C :    0.158888
   6 O :   -0.152340
   7 H :    0.187071
   8 H :    0.009588
   9 H :    0.048907
  10 H :    0.032025
  11 H :   -0.014882
Sum of atomic charges:   -0.0000000

LOEWDIN ATOMIC CHARGES
----------------------
   0 O :   -0.007021
   1 N :    0.011724
   2 C :   -0.095331
   3 C :   -0.054139
   4 C :   -0.000565
   5 C :    0.079036
   6 O :   -0.103628
   7 H :    0.086748
   8 H :    0.031540
   9 H :    0.028666
  10 H :    0.028811
  11 H :   -0.005843

  Mayer bond orders larger than 0.1
B(  0-O ,  1-N ) :   1.0560 B(  0-O ,  7-H ) :   0.9672 B(  1-N ,  2-C ) :   1.7226
B(  2-C ,  3-C ) :   1.0947 B(  2-C ,  5-C ) :   0.9827 B(  3-C ,  4-C ) :   1.8946
B(  3-C ,  8-H ) :   0.9483 B(  4-C ,  9-H ) :   0.9344 B(  4-C , 10-H ) :   0.9344
B(  5-C ,  6-O ) :   2.1174 B(  5-C , 11-H ) :   0.9248

FINAL SINGLE POINT ENERGY      -359.864441240647

DIPOLE MOMENT
-------------
                                X             Y             Z
Electronic contribution:      1.14050       0.70465      -2.81236
Nuclear contribution   :     -2.18077      -0.58923       2.23538
                        -----------------------------------------
Total Dipole Moment    :     -1.04028       0.11543      -0.57698
                        -----------------------------------------
Magnitude (a.u.)       :      1.19516
Magnitude (Debye)      :      3.03786

                             ****ORCA TERMINATED NORMALLY****
TOTAL RUN TIME: 0 days 0 hours 0 minutes 6 seconds 82 msec
