                         Program Version 3.0.3 - RELEASE   -
|  1> ! RI PBE def2-SVP def2-SVP/J NBO PAL2
|  2> % maxcore 2000
|  3> % output
|  4>     # printlevel mini
|  5>     print[ P_Basis ] 0
|  6>     print[ P_SCFInfo ] 1
|  7>     print[ P_SCFIterInfo ] 1
|  8>     print[ P_OrbEn ] 0
|  9>     print[ P_Cartesian ] 0
| 10> end
| 11> *xyz 0 1
| 12>  O        1.5070160000     0.5591110000     0.7110690000
| 13>  N        2.2286860000     0.7408680000    -0.4476140000
| 14>  C        3.4732130000     0.9179800000    -0.2467700000
| 15>  C        4.2296470000     0.9534990000     1.0066610000
| 16>  C        5.5485030000     0.7371380000     0.9906590000
| 17>  C        3.6040980000     1.3284450000     2.3138540000
| 18>  O        4.0883500000     1.0380720000     3.3753470000
| 19>  H        0.6090010000     0.4301570000     0.3928620000
| 20>  H        4.0392760000     1.0165970000    -1.1692010000
| 21>  H        6.0791110000     0.5224250000     0.0697280000
| 22>  H        6.1142000000     0.7730700000     1.9140300000
| 23>  H        2.6862990000     1.9359380000     2.2511730000
| 24> *
| 25>
| 26>                          ****END OF INPUT****
 Total Charge           Charge          ....    0
 Multiplicity           Mult            ....    1
 Number of Electrons    NEL             ....   52
 Basis Dimension        Dim             ....  123

MULLIKEN ATOMIC CHARGES
-----------------------
   0 O :   -0.167093
   1 N :   -0.009208
   2 C :   -0.023178
   3 C :   -0.102192
   4 C :    0.016382
   5 C :    0.163856
   6 O :   -0.161803
   7 H :    0.183128
   8 H :    0.022633
   9 H :    0.034083
  10 H :    0.048269
  11 H :   -0.004876
Sum of atomic charges:    0.0000000

LOEWDIN ATOMIC CHARGES
----------------------
   0 O :   -0.033632
   1 N :   -0.000650
   2 C :   -0.053959
   3 C :   -0.103441
   4 C :    0.030967
   5 C :    0.092019
   6 O :   -0.105231
   7 H :    0.081444
   8 H :    0.035052
   9 H :    0.030230
  10 H :    0.034588
  11 H :   -0.007387

  Mayer bond orders larger than 0.1
B(  0-O ,  1-N ) :   1.0128 B(  0-O ,  2-C ) :   0.1029 B(  0-O ,  7-H ) :   0.9695
B(  1-N ,  2-C ) :   1.9066 B(  2-C ,  3-C ) :   1.0212 B(  2-C ,  8-H ) :   0.9544
B(  3-C ,  4-C ) :   1.8725 B(  3-C ,  5-C ) :   0.9394 B(  4-C ,  9-H ) :   0.9440
B(  4-C , 10-H ) :   0.9248 B(  5-C ,  6-O ) :   2.1466 B(  5-C , 11-H ) :   0.9282

FINAL SINGLE POINT ENERGY      -359.855137592044

DIPOLE MOMENT
-------------
                                X             Y             Z
Electronic contribution:     -2.24716      -0.14706       1.20787
Nuclear contribution   :      2.06261       0.22271      -2.01099
                        -----------------------------------------
Total Dipole Moment    :     -0.18455       0.07565      -0.80313
                        -----------------------------------------
Magnitude (a.u.)       :      0.82752
Magnitude (Debye)      :      2.10339

                             ****ORCA TERMINATED NORMALLY****
TOTAL RUN TIME: 0 days 0 hours 0 minutes 5 seconds 860 msec
