                         Program Version 3.0.3 - RELEASE   -
|  1> ! RI PBE def2-SVP def2-SVP/J NBO PAL2
|  2> % maxcore 2000
|  3> % output
|  4>     # printlevel mini
|  5>     print[ P_Basis ] 0
|  6>     print[ P_SCFInfo ] 1
|  7>     print[ P_SCFIterInfo ] 1
|  8>     print[ P_OrbEn ] 0
|  9>     print[ P_Cartesian ] 0
| 10> end
| 11> *xyz 0 1
| 12>  O        0.8722720000    -0.0520800000    -0.0105820000
| 13>  N        2.2182350000     0.0868760000    -0.1470400000
| 14>  C        2.8446370000    -0.8730560000     0.4188890000
| 15>  C        4.2545260000    -0.8959600000     0.3795270000
| 16>  C        5.4590300000    -0.9889670000     0.3929480000
| 17>  C        6.8954190000    -1.0306110000     0.3653570000
| 18>  O        7.5554700000    -1.8997360000     0.8759500000
| 19>  H        0.5161250000     0.7161100000    -0.4690120000
| 20>  H        2.3092850000    -1.6729380000     0.9308540000
| 21>  H        7.3650910000    -0.1853580000    -0.1720810000
| 22> *
| 23>
| 24>                          ****END OF INPUT****
 Total Charge           Charge          ....    0
 Multiplicity           Mult            ....    1
 Number of Electrons    NEL             ....   50
 Basis Dimension        Dim             ....  113

MULLIKEN ATOMIC CHARGES
-----------------------
   0 O :   -0.137651
   1 N :   -0.023057
   2 C :   -0.049384
   3 C :    0.061812
   4 C :   -0.031277
   5 C :    0.082498
   6 O :   -0.153435
   7 H :    0.187158
   8 H :    0.045041
   9 H :    0.018294
Sum of atomic charges:   -0.0000000

LOEWDIN ATOMIC CHARGES
----------------------
   0 O :   -0.010223
   1 N :    0.025466
   2 C :   -0.048413
   3 C :   -0.005981
   4 C :   -0.054622
   5 C :    0.064195
   6 O :   -0.092285
   7 H :    0.087678
   8 H :    0.028220
   9 H :    0.005966

  Mayer bond orders larger than 0.1
B(  0-O ,  1-N ) :   1.0453 B(  0-O ,  2-C ) :   0.1092 B(  0-O ,  7-H ) :   0.9678
B(  1-N ,  2-C ) :   1.7706 B(  2-C ,  3-C ) :   1.0260 B(  2-C ,  8-H ) :   0.9426
B(  3-C ,  4-C ) :   2.4646 B(  3-C ,  6-O ) :   0.1034 B(  4-C ,  5-C ) :   0.9172
B(  5-C ,  6-O ) :   2.1186 B(  5-C ,  9-H ) :   0.9398

FINAL SINGLE POINT ENERGY      -358.614145461825

DIPOLE MOMENT
-------------
                                X             Y             Z
Electronic contribution:      0.96046      -0.41858       0.22023
Nuclear contribution   :     -2.33354       1.15061      -0.61958
                        -----------------------------------------
Total Dipole Moment    :     -1.37308       0.73203      -0.39935
                        -----------------------------------------
Magnitude (a.u.)       :      1.60645
Magnitude (Debye)      :      4.08328

                             ****ORCA TERMINATED NORMALLY****
TOTAL RUN TIME: 0 days 0 hours 0 minutes 5 seconds 445 msec
