                         Program Version 3.0.3 - RELEASE   -
|  1> ! RI PBE def2-SVP def2-SVP/J NBO PAL2
|  2> % maxcore 2000
|  3> % output
|  4>     # printlevel mini
|  5>     print[ P_Basis ] 0
|  6>     print[ P_SCFInfo ] 1
|  7>     print[ P_SCFIterInfo ] 1
|  8>     print[ P_OrbEn ] 0
|  9>     print[ P_Cartesian ] 0
| 10> end
| 11> *xyz 0 1
| 12>  O        0.7588100000    -1.3049870000    -0.1900390000
| 13>  N        2.1394960000    -1.3837310000    -0.2451070000
| 14>  C        2.6831640000    -0.8676020000     0.7749310000
| 15>  C        4.1693300000    -0.8683810000     0.8849310000
| 16>  C        4.6820430000    -1.7126040000     2.0451980000
| 17>  C        4.3860060000    -1.1626020000     3.4078860000
| 18>  O        3.8292310000    -0.1202580000     3.6212290000
| 19>  H        0.4856790000    -1.7135300000    -1.0159150000
| 20>  H        2.0817180000    -0.4273980000     1.5711150000
| 21>  H        4.5148550000     0.1614500000     1.0215890000
| 22>  H        4.5834930000    -1.2422720000    -0.0530690000
| 23>  H        5.7727060000    -1.8297350000     1.9896730000
| 24>  H        4.2862490000    -2.7353660000     2.0047330000
| 25>  H        4.7362200000    -1.7961840000     4.2517450000
| 26> *
| 27>
| 28>                          ****END OF INPUT****
 Total Charge           Charge          ....    0
 Multiplicity           Mult            ....    1
 Number of Electrons    NEL             ....   54
 Basis Dimension        Dim             ....  133

MULLIKEN ATOMIC CHARGES
-----------------------
   0 O :   -0.179277
   1 N :   -0.042528
   2 C :   -0.071776
   3 C :    0.081840
   4 C :   -0.043477
   5 C :    0.079719
   6 O :   -0.161815
   7 H :    0.170210
   8 H :    0.019632
   9 H :    0.036974
  10 H :    0.014034
  11 H :    0.051260
  12 H :    0.047335
  13 H :   -0.002133
Sum of atomic charges:    0.0000000

LOEWDIN ATOMIC CHARGES
----------------------
   0 O :   -0.056680
   1 N :   -0.017261
   2 C :   -0.035445
   3 C :   -0.042719
   4 C :   -0.083072
   5 C :    0.092565
   6 O :   -0.108994
   7 H :    0.072475
   8 H :    0.009407
   9 H :    0.041053
  10 H :    0.035801
  11 H :    0.053019
  12 H :    0.048717
  13 H :   -0.008866

  Mayer bond orders larger than 0.1
B(  0-O ,  1-N ) :   0.9945 B(  0-O ,  2-C ) :   0.1121 B(  0-O ,  7-H ) :   0.9762
B(  1-N ,  2-C ) :   1.9128 B(  2-C ,  3-C ) :   1.0413 B(  2-C ,  8-H ) :   0.9472
B(  3-C ,  4-C ) :   1.0736 B(  3-C ,  9-H ) :   0.9176 B(  3-C , 10-H ) :   0.9158
B(  4-C ,  5-C ) :   0.9751 B(  4-C , 11-H ) :   0.9037 B(  4-C , 12-H ) :   0.9046
B(  5-C ,  6-O ) :   2.1656 B(  5-C , 13-H ) :   0.9247

FINAL SINGLE POINT ENERGY      -361.074512455376

DIPOLE MOMENT
-------------
                                X             Y             Z
Electronic contribution:     -3.43897       1.28339       0.05807
Nuclear contribution   :      3.92544      -2.01704      -0.36736
                        -----------------------------------------
Total Dipole Moment    :      0.48647      -0.73365      -0.30929
                        -----------------------------------------
Magnitude (a.u.)       :      0.93304
Magnitude (Debye)      :      2.37159

                             ****ORCA TERMINATED NORMALLY****
TOTAL RUN TIME: 0 days 0 hours 0 minutes 6 seconds 241 msec
