                         Program Version 3.0.3 - RELEASE   -
|  1> ! RI PBE def2-SVP def2-SVP/J NBO PAL2
|  2> % maxcore 2000
|  3> % output
|  4>     # printlevel mini
|  5>     print[ P_Basis ] 0
|  6>     print[ P_SCFInfo ] 1
|  7>     print[ P_SCFIterInfo ] 1
|  8>     print[ P_OrbEn ] 0
|  9>     print[ P_Cartesian ] 0
| 10> end
| 11> *xyz 0 1
| 12>  O       -0.5723260000    -0.5844530000     1.9567260000
| 13>  N        0.3288870000    -1.2761240000     1.1687240000
| 14>  C        1.7233390000    -1.0503000000     1.4669390000
| 15>  C        2.1325080000    -1.7315480000     2.7333870000
| 16>  C        2.5366570000    -1.0924850000     3.8214860000
| 17>  C       -0.1306460000    -1.6983350000    -0.0367810000
| 18>  O        0.5696880000    -2.1423730000    -0.9157310000
| 19>  H       -0.6906270000    -1.1256500000     2.7472000000
| 20>  H        1.9087500000     0.0272040000     1.5286790000
| 21>  H        2.2669350000    -1.4525580000     0.6076990000
| 22>  H        2.0763990000    -2.8180620000     2.7274180000
| 23>  H        2.5980570000    -0.0087330000     3.8482660000
| 24>  H        2.8321400000    -1.6253020000     4.7177750000
| 25>  H       -1.2280610000    -1.6034020000    -0.0986860000
| 26> *
| 27>
| 28>                          ****END OF INPUT****
 Total Charge           Charge          ....    0
 Multiplicity           Mult            ....    1
 Number of Electrons    NEL             ....   54
 Basis Dimension        Dim             ....  133

MULLIKEN ATOMIC CHARGES
-----------------------
   0 O :   -0.185432
   1 N :   -0.146403
   2 C :    0.230480
   3 C :   -0.145565
   4 C :   -0.020531
   5 C :    0.171291
   6 O :   -0.227754
   7 H :    0.186907
   8 H :    0.022087
   9 H :    0.035443
  10 H :    0.024004
  11 H :    0.030013
  12 H :    0.033057
  13 H :   -0.007597
Sum of atomic charges:   -0.0000000

LOEWDIN ATOMIC CHARGES
----------------------
   0 O :   -0.051182
   1 N :    0.039586
   2 C :    0.021201
   3 C :   -0.052581
   4 C :   -0.048601
   5 C :    0.038999
   6 O :   -0.176233
   7 H :    0.079341
   8 H :    0.028926
   9 H :    0.043679
  10 H :    0.031330
  11 H :    0.026385
  12 H :    0.029011
  13 H :   -0.009860

  Mayer bond orders larger than 0.1
B(  0-O ,  1-N ) :   0.9425 B(  0-O ,  7-H ) :   0.9683 B(  1-N ,  2-C ) :   0.9338
B(  1-N ,  5-C ) :   1.1487 B(  1-N ,  6-O ) :   0.1147 B(  2-C ,  3-C ) :   1.0678
B(  2-C ,  8-H ) :   0.9268 B(  2-C ,  9-H ) :   0.8882 B(  3-C ,  4-C ) :   1.9903
B(  3-C , 10-H ) :   0.9599 B(  4-C , 11-H ) :   0.9504 B(  4-C , 12-H ) :   0.9443
B(  5-C ,  6-O ) :   2.0126 B(  5-C , 13-H ) :   0.9234

FINAL SINGLE POINT ENERGY      -361.070853516228

DIPOLE MOMENT
-------------
                                X             Y             Z
Electronic contribution:     -3.35723      -0.70570      -4.25850
Nuclear contribution   :      3.30958       0.83172       5.62826
                        -----------------------------------------
Total Dipole Moment    :     -0.04764       0.12602       1.36976
                        -----------------------------------------
Magnitude (a.u.)       :      1.37637
Magnitude (Debye)      :      3.49845

                             ****ORCA TERMINATED NORMALLY****
TOTAL RUN TIME: 0 days 0 hours 0 minutes 6 seconds 346 msec
