                         Program Version 3.0.3 - RELEASE   -
|  1> ! RI PBE def2-SVP def2-SVP/J NBO PAL2
|  2> % maxcore 2000
|  3> % output
|  4>     # printlevel mini
|  5>     print[ P_Basis ] 0
|  6>     print[ P_SCFInfo ] 1
|  7>     print[ P_SCFIterInfo ] 1
|  8>     print[ P_OrbEn ] 0
|  9>     print[ P_Cartesian ] 0
| 10> end
| 11> *xyz 0 1
| 12>  O        1.2830200000    -0.4006160000    -0.5917250000
| 13>  N        2.4155950000    -0.0448080000     0.1102790000
| 14>  C        3.3452220000     0.8104730000    -0.5844860000
| 15>  C        2.7934600000     2.1383040000    -0.8163700000
| 16>  C        2.3207920000     3.2217970000    -1.0195440000
| 17>  C        2.7822790000    -0.8569090000     1.1353830000
| 18>  O        3.8466730000    -0.7955250000     1.7023360000
| 19>  H        0.6547270000     0.3180160000    -0.4428670000
| 20>  H        3.6308610000     0.3541000000    -1.5396500000
| 21>  H        4.2340720000     0.8594890000     0.0501470000
| 22>  H        1.9152770000     4.1904510000    -1.1954180000
| 23>  H        1.9728240000    -1.5608630000     1.3915160000
| 24> *
| 25>
| 26>                          ****END OF INPUT****
 Total Charge           Charge          ....    0
 Multiplicity           Mult            ....    1
 Number of Electrons    NEL             ....   52
 Basis Dimension        Dim             ....  123

MULLIKEN ATOMIC CHARGES
-----------------------
   0 O :   -0.183383
   1 N :   -0.143574
   2 C :    0.260442
   3 C :    0.256963
   4 C :   -0.451922
   5 C :    0.179425
   6 O :   -0.224687
   7 H :    0.192691
   8 H :    0.052844
   9 H :    0.055048
  10 H :    0.010900
  11 H :   -0.004747
Sum of atomic charges:   -0.0000000

LOEWDIN ATOMIC CHARGES
----------------------
   0 O :   -0.047649
   1 N :    0.041273
   2 C :    0.017219
   3 C :   -0.039915
   4 C :   -0.066435
   5 C :    0.044431
   6 O :   -0.171758
   7 H :    0.083613
   8 H :    0.048533
   9 H :    0.058582
  10 H :    0.039425
  11 H :   -0.007318

  Mayer bond orders larger than 0.1
B(  0-O ,  1-N ) :   0.9484 B(  0-O ,  7-H ) :   0.9660 B(  1-N ,  2-C ) :   0.9444
B(  1-N ,  5-C ) :   1.1431 B(  1-N ,  6-O ) :   0.1154 B(  2-C ,  3-C ) :   1.0466
B(  2-C ,  8-H ) :   0.9042 B(  2-C ,  9-H ) :   0.8734 B(  3-C ,  4-C ) :   2.3934
B(  3-C , 10-H ) :  -0.1019 B(  4-C , 10-H ) :   1.0928 B(  5-C ,  6-O ) :   2.0154
B(  5-C , 11-H ) :   0.9241

FINAL SINGLE POINT ENERGY      -359.824088072660

DIPOLE MOMENT
-------------
                                X             Y             Z
Electronic contribution:     -0.02531      -0.95851       1.05664
Nuclear contribution   :     -0.83457       1.58465      -1.71343
                        -----------------------------------------
Total Dipole Moment    :     -0.85988       0.62613      -0.65679
                        -----------------------------------------
Magnitude (a.u.)       :      1.25012
Magnitude (Debye)      :      3.17756

                             ****ORCA TERMINATED NORMALLY****
TOTAL RUN TIME: 0 days 0 hours 0 minutes 5 seconds 643 msec
