                         Program Version 3.0.3 - RELEASE   -
|  1> ! RI PBE def2-SVP def2-SVP/J NBO PAL2
|  2> % maxcore 2000
|  3> % output
|  4>     # printlevel mini
|  5>     print[ P_Basis ] 0
|  6>     print[ P_SCFInfo ] 1
|  7>     print[ P_SCFIterInfo ] 1
|  8>     print[ P_OrbEn ] 0
|  9>     print[ P_Cartesian ] 0
| 10> end
| 11> *xyz 0 1
| 12>  O        1.5712650000    -0.9992260000    -2.1489950000
| 13>  N        2.7233770000    -0.6020430000    -1.4965180000
| 14>  C        2.8705230000     0.6542920000    -1.5173760000
| 15>  C        4.0536120000     1.2628880000    -0.8479110000
| 16>  N        4.7989460000     2.0811820000    -1.7865620000
| 17>  C        6.1854130000     2.3155560000    -1.4428900000
| 18>  C        5.8256600000     1.3886170000    -2.5389180000
| 19>  H        1.5897200000    -1.9560540000    -2.0599380000
| 20>  H        2.1527280000     1.3016350000    -2.0234270000
| 21>  H        4.6589890000     0.4600940000    -0.4002330000
| 22>  H        3.7117840000     1.9173870000    -0.0372500000
| 23>  H        6.5591160000     1.8722570000    -0.5229590000
| 24>  H        6.5663130000     3.3067850000    -1.6630490000
| 25>  H        5.9523770000     0.3250060000    -2.3533630000
| 26>  H        5.9389690000     1.6927370000    -3.5734210000
| 27> *
| 28>
| 29>                          ****END OF INPUT****
 Total Charge           Charge          ....    0
 Multiplicity           Mult            ....    1
 Number of Electrons    NEL             ....   54
 Basis Dimension        Dim             ....  138

MULLIKEN ATOMIC CHARGES
-----------------------
   0 O :   -0.174326
   1 N :   -0.047316
   2 C :   -0.045836
   3 C :    0.184444
   4 N :   -0.310041
   5 C :    0.033381
   6 C :    0.028096
   7 H :    0.170758
   8 H :    0.011129
   9 H :   -0.008929
  10 H :    0.025746
  11 H :    0.022887
  12 H :    0.037871
  13 H :    0.034667
  14 H :    0.037469
Sum of atomic charges:    0.0000000

LOEWDIN ATOMIC CHARGES
----------------------
   0 O :   -0.053135
   1 N :   -0.015388
   2 C :   -0.034432
   3 C :    0.006335
   4 N :   -0.112132
   5 C :    0.005771
   6 C :    0.004160
   7 H :    0.073543
   8 H :    0.009537
   9 H :    0.009040
  10 H :    0.033566
  11 H :    0.013326
  12 H :    0.021428
  13 H :    0.016188
  14 H :    0.022195

  Mayer bond orders larger than 0.1
B(  0-O ,  1-N ) :   0.9915 B(  0-O ,  2-C ) :   0.1184 B(  0-O ,  7-H ) :   0.9765
B(  1-N ,  2-C ) :   1.9084 B(  2-C ,  3-C ) :   1.0390 B(  2-C ,  8-H ) :   0.9419
B(  3-C ,  4-N ) :   0.9882 B(  3-C ,  9-H ) :   0.8989 B(  3-C , 10-H ) :   0.9140
B(  4-N ,  5-C ) :   0.9649 B(  4-N ,  6-C ) :   0.9646 B(  5-C ,  6-C ) :   1.0920
B(  5-C , 11-H ) :   0.9321 B(  5-C , 12-H ) :   0.9502 B(  6-C , 13-H ) :   0.9348
B(  6-C , 14-H ) :   0.9507

FINAL SINGLE POINT ENERGY      -341.189573287376

DIPOLE MOMENT
-------------
                                X             Y             Z
Electronic contribution:     -4.88029      -2.55464      -0.66359
Nuclear contribution   :      5.15960       2.25072       0.83532
                        -----------------------------------------
Total Dipole Moment    :      0.27931      -0.30392       0.17172
                        -----------------------------------------
Magnitude (a.u.)       :      0.44706
Magnitude (Debye)      :      1.13634

                             ****ORCA TERMINATED NORMALLY****
TOTAL RUN TIME: 0 days 0 hours 0 minutes 7 seconds 47 msec
