                         Program Version 3.0.3 - RELEASE   -
|  1> ! RI PBE def2-SVP def2-SVP/J NBO PAL2
|  2> % maxcore 2000
|  3> % output
|  4>     # printlevel mini
|  5>     print[ P_Basis ] 0
|  6>     print[ P_SCFInfo ] 1
|  7>     print[ P_SCFIterInfo ] 1
|  8>     print[ P_OrbEn ] 0
|  9>     print[ P_Cartesian ] 0
| 10> end
| 11> *xyz 0 1
| 12>  O        0.9093860000     0.0261530000     0.1013480000
| 13>  N        2.2687240000    -0.0280700000     0.0513300000
| 14>  C        2.8441960000     1.0294200000     0.5055350000
| 15>  C        2.1168790000     2.2231410000     1.0446010000
| 16>  O        2.6916970000     3.1915840000     1.4585250000
| 17>  C        4.2650950000     1.0559510000     0.4883580000
| 18>  C        5.4629580000     1.1298820000     0.4966590000
| 19>  H        0.6439610000    -0.8223000000    -0.2669720000
| 20>  H        1.0181200000     2.1521520000     1.0354980000
| 21>  H        6.5259750000     1.1888870000     0.5005280000
| 22> *
| 23>
| 24>                          ****END OF INPUT****
 Total Charge           Charge          ....    0
 Multiplicity           Mult            ....    1
 Number of Electrons    NEL             ....   50
 Basis Dimension        Dim             ....  113

MULLIKEN ATOMIC CHARGES
-----------------------
   0 O :   -0.139847
   1 N :    0.003475
   2 C :   -0.153632
   3 C :    0.165274
   4 O :   -0.113304
   5 C :    0.455795
   6 C :   -0.426626
   7 H :    0.191677
   8 H :    0.003221
   9 H :    0.013967
Sum of atomic charges:   -0.0000000

LOEWDIN ATOMIC CHARGES
----------------------
   0 O :   -0.011839
   1 N :    0.031892
   2 C :   -0.118230
   3 C :    0.080639
   4 O :   -0.076039
   5 C :   -0.012883
   6 C :   -0.022478
   7 H :    0.089628
   8 H :   -0.001488
   9 H :    0.040798

  Mayer bond orders larger than 0.1
B(  0-O ,  1-N ) :   1.0541 B(  0-O ,  7-H ) :   0.9666 B(  1-N ,  2-C ) :   1.7636
B(  2-C ,  3-C ) :   0.9207 B(  2-C ,  5-C ) :   0.9988 B(  3-C ,  4-O ) :   2.2084
B(  3-C ,  8-H ) :   0.9323 B(  5-C ,  6-C ) :   2.2787 B(  5-C ,  9-H ) :  -0.1051
B(  6-C ,  9-H ) :   1.0950

FINAL SINGLE POINT ENERGY      -358.606191895193

DIPOLE MOMENT
-------------
                                X             Y             Z
Electronic contribution:     -0.21089       0.19603       0.09181
Nuclear contribution   :     -0.29803      -1.08127      -0.47118
                        -----------------------------------------
Total Dipole Moment    :     -0.50892      -0.88525      -0.37937
                        -----------------------------------------
Magnitude (a.u.)       :      1.08930
Magnitude (Debye)      :      2.76879

                             ****ORCA TERMINATED NORMALLY****
TOTAL RUN TIME: 0 days 0 hours 0 minutes 5 seconds 41 msec
