                         Program Version 3.0.3 - RELEASE   -
|  1> ! RI PBE def2-SVP def2-SVP/J NBO PAL2
|  2> % maxcore 2000
|  3> % output
|  4>     # printlevel mini
|  5>     print[ P_Basis ] 0
|  6>     print[ P_SCFInfo ] 1
|  7>     print[ P_SCFIterInfo ] 1
|  8>     print[ P_OrbEn ] 0
|  9>     print[ P_Cartesian ] 0
| 10> end
| 11> *xyz 0 1
| 12>  O        0.8727010000    -1.4079800000     0.9122490000
| 13>  N        2.1835870000    -1.5401770000     1.2587660000
| 14>  C        2.9310830000    -0.7096280000     0.6538020000
| 15>  C        4.3909910000    -0.7043310000     0.9045820000
| 16>  O        5.0765770000     0.1017130000     0.3108700000
| 17>  C        4.9406800000    -1.6850610000     1.8698730000
| 18>  C        6.2428340000    -1.7181210000     2.1273060000
| 19>  H        0.4276370000    -2.0841820000     1.4333930000
| 20>  H        2.5425180000     0.0175900000    -0.0584410000
| 21>  H        4.2416180000    -2.3612770000     2.3465440000
| 22>  H        6.9138480000    -1.0251010000     1.6308270000
| 23>  H        6.6665360000    -2.4264350000     2.8291210000
| 24> *
| 25>
| 26>                          ****END OF INPUT****
 Total Charge           Charge          ....    0
 Multiplicity           Mult            ....    1
 Number of Electrons    NEL             ....   52
 Basis Dimension        Dim             ....  123

MULLIKEN ATOMIC CHARGES
-----------------------
   0 O :   -0.134521
   1 N :   -0.007226
   2 C :   -0.003187
   3 C :    0.067158
   4 O :   -0.164259
   5 C :   -0.067703
   6 C :    0.035700
   7 H :    0.182093
   8 H :    0.006440
   9 H :    0.008940
  10 H :    0.042391
  11 H :    0.034173
Sum of atomic charges:   -0.0000000

LOEWDIN ATOMIC CHARGES
----------------------
   0 O :   -0.013445
   1 N :    0.015105
   2 C :   -0.049746
   3 C :    0.026155
   4 O :   -0.120653
   5 C :   -0.067887
   6 C :    0.018362
   7 H :    0.083344
   8 H :    0.018607
   9 H :    0.027177
  10 H :    0.032256
  11 H :    0.030725

  Mayer bond orders larger than 0.1
B(  0-O ,  1-N ) :   1.0334 B(  0-O ,  2-C ) :   0.1188 B(  0-O ,  7-H ) :   0.9691
B(  1-N ,  2-C ) :   1.8367 B(  2-C ,  3-C ) :   0.9993 B(  2-C ,  8-H ) :   0.9423
B(  3-C ,  4-O ) :   2.0789 B(  3-C ,  5-C ) :   1.0030 B(  5-C ,  6-C ) :   1.9331
B(  5-C ,  9-H ) :   0.9405 B(  6-C , 10-H ) :   0.9309 B(  6-C , 11-H ) :   0.9425

FINAL SINGLE POINT ENERGY      -359.864784910836

DIPOLE MOMENT
-------------
                                X             Y             Z
Electronic contribution:     -2.76593       1.45235      -1.77191
Nuclear contribution   :      2.00771      -2.25606       2.35057
                        -----------------------------------------
Total Dipole Moment    :     -0.75822      -0.80371       0.57866
                        -----------------------------------------
Magnitude (a.u.)       :      1.24727
Magnitude (Debye)      :      3.17031

                             ****ORCA TERMINATED NORMALLY****
TOTAL RUN TIME: 0 days 0 hours 0 minutes 6 seconds 157 msec
