                         Program Version 3.0.3 - RELEASE   -
|  1> ! RI PBE def2-SVP def2-SVP/J NBO PAL2
|  2> % maxcore 2000
|  3> % output
|  4>     # printlevel mini
|  5>     print[ P_Basis ] 0
|  6>     print[ P_SCFInfo ] 1
|  7>     print[ P_SCFIterInfo ] 1
|  8>     print[ P_OrbEn ] 0
|  9>     print[ P_Cartesian ] 0
| 10> end
| 11> *xyz 0 1
| 12>  O        1.0188650000    -0.0652360000    -0.0439750000
| 13>  N        2.3602750000     0.1394570000    -0.0200980000
| 14>  C        3.0049320000    -0.8458600000    -0.4972880000
| 15>  C        4.4882360000    -0.7683220000    -0.5384480000
| 16>  O        5.1364430000     0.1708320000    -0.1480360000
| 17>  C        5.1172910000    -1.9500620000    -1.1039950000
| 18>  C        5.6285980000    -2.9310610000    -1.5729810000
| 19>  H        0.6587720000     0.7422280000     0.3385590000
| 20>  H        2.5043720000    -1.7373630000    -0.8735780000
| 21>  H        6.0992150000    -3.7931050000    -1.9862710000
| 22> *
| 23>
| 24>                          ****END OF INPUT****
 Total Charge           Charge          ....    0
 Multiplicity           Mult            ....    1
 Number of Electrons    NEL             ....   50
 Basis Dimension        Dim             ....  113

MULLIKEN ATOMIC CHARGES
-----------------------
   0 O :   -0.133666
   1 N :    0.010574
   2 C :   -0.028248
   3 C :    0.075441
   4 O :   -0.129060
   5 C :    0.365179
   6 C :   -0.390227
   7 H :    0.187546
   8 H :    0.020286
   9 H :    0.022173
Sum of atomic charges:   -0.0000000

LOEWDIN ATOMIC CHARGES
----------------------
   0 O :   -0.006630
   1 N :    0.042932
   2 C :   -0.066306
   3 C :    0.015054
   4 O :   -0.084596
   5 C :   -0.036761
   6 C :   -0.010099
   7 H :    0.086925
   8 H :    0.015520
   9 H :    0.043961

  Mayer bond orders larger than 0.1
B(  0-O ,  1-N ) :   1.0516 B(  0-O ,  2-C ) :   0.1160 B(  0-O ,  7-H ) :   0.9675
B(  1-N ,  2-C ) :   1.8223 B(  2-C ,  3-C ) :   0.9766 B(  2-C ,  8-H ) :   0.9433
B(  3-C ,  4-O ) :   2.1411 B(  3-C ,  5-C ) :   0.8769 B(  4-O ,  6-C ) :   0.1072
B(  5-C ,  6-C ) :   2.3522 B(  6-C ,  9-H ) :   1.0849

FINAL SINGLE POINT ENERGY      -358.607043659492

DIPOLE MOMENT
-------------
                                X             Y             Z
Electronic contribution:      0.87975       1.51354       0.63927
Nuclear contribution   :     -1.77256      -2.16497      -0.88626
                        -----------------------------------------
Total Dipole Moment    :     -0.89281      -0.65143      -0.24699
                        -----------------------------------------
Magnitude (a.u.)       :      1.13246
Magnitude (Debye)      :      2.87849

                             ****ORCA TERMINATED NORMALLY****
TOTAL RUN TIME: 0 days 0 hours 0 minutes 4 seconds 823 msec
