                         Program Version 3.0.3 - RELEASE   -
|  1> ! RI PBE def2-SVP def2-SVP/J NBO PAL2
|  2> % maxcore 2000
|  3> % output
|  4>     # printlevel mini
|  5>     print[ P_Basis ] 0
|  6>     print[ P_SCFInfo ] 1
|  7>     print[ P_SCFIterInfo ] 1
|  8>     print[ P_OrbEn ] 0
|  9>     print[ P_Cartesian ] 0
| 10> end
| 11> *xyz 0 1
| 12>  O        0.9380090000     1.0515130000     0.7788490000
| 13>  N        2.3127920000     1.1242110000     0.7340940000
| 14>  C        2.8819880000     0.0730280000     1.1373800000
| 15>  C        4.3835510000     0.0366310000     1.1417730000
| 16>  O        4.9381920000     1.2414780000     0.7090460000
| 17>  C        4.8793770000    -0.3678060000     2.5045810000
| 18>  C        5.7008690000     0.3613070000     3.2411330000
| 19>  H        0.6576680000     1.9090410000     0.4463580000
| 20>  H        2.3187550000    -0.7954920000     1.4790480000
| 21>  H        4.6773000000    -0.7662370000     0.4409540000
| 22>  H        4.1992680000     1.8291300000     0.5005530000
| 23>  H        4.5275450000    -1.3346340000     2.8584080000
| 24>  H        6.0620190000     1.3175590000     2.8825220000
| 25>  H        6.0362960000     0.0177900000     4.2123100000
| 26> *
| 27>
| 28>                          ****END OF INPUT****
 Total Charge           Charge          ....    0
 Multiplicity           Mult            ....    1
 Number of Electrons    NEL             ....   54
 Basis Dimension        Dim             ....  133

MULLIKEN ATOMIC CHARGES
-----------------------
   0 O :   -0.165387
   1 N :   -0.080514
   2 C :   -0.018980
   3 C :    0.197503
   4 O :   -0.236834
   5 C :   -0.104244
   6 C :   -0.008044
   7 H :    0.176157
   8 H :    0.013072
   9 H :    0.027283
  10 H :    0.147126
  11 H :   -0.000075
  12 H :    0.029364
  13 H :    0.023574
Sum of atomic charges:    0.0000000

LOEWDIN ATOMIC CHARGES
----------------------
   0 O :   -0.043608
   1 N :   -0.023632
   2 C :   -0.026731
   3 C :    0.036860
   4 O :   -0.095513
   5 C :   -0.049001
   6 C :   -0.050293
   7 H :    0.077433
   8 H :    0.013732
   9 H :    0.033798
  10 H :    0.050664
  11 H :    0.024521
  12 H :    0.025877
  13 H :    0.025893

  Mayer bond orders larger than 0.1
B(  0-O ,  1-N ) :   1.0055 B(  0-O ,  2-C ) :   0.1094 B(  0-O ,  7-H ) :   0.9739
B(  1-N ,  2-C ) :   1.8922 B(  1-N , 10-H ) :   0.1006 B(  2-C ,  3-C ) :   0.9782
B(  2-C ,  8-H ) :   0.9401 B(  3-C ,  4-O ) :   1.1853 B(  3-C ,  5-C ) :   0.9481
B(  3-C ,  9-H ) :   0.8788 B(  4-O , 10-H ) :   0.9456 B(  5-C ,  6-C ) :   2.0414
B(  5-C , 11-H ) :   0.9409 B(  6-C , 12-H ) :   0.9320 B(  6-C , 13-H ) :   0.9414

FINAL SINGLE POINT ENERGY      -361.049413055320

DIPOLE MOMENT
-------------
                                X             Y             Z
Electronic contribution:     -3.40507       1.54676      -2.74340
Nuclear contribution   :      2.69142      -1.56548       2.68958
                        -----------------------------------------
Total Dipole Moment    :     -0.71365      -0.01872      -0.05382
                        -----------------------------------------
Magnitude (a.u.)       :      0.71592
Magnitude (Debye)      :      1.81973

                             ****ORCA TERMINATED NORMALLY****
TOTAL RUN TIME: 0 days 0 hours 0 minutes 6 seconds 44 msec
