                         Program Version 3.0.3 - RELEASE   -
|  1> ! RI PBE def2-SVP def2-SVP/J NBO PAL2
|  2> % maxcore 2000
|  3> % output
|  4>     # printlevel mini
|  5>     print[ P_Basis ] 0
|  6>     print[ P_SCFInfo ] 1
|  7>     print[ P_SCFIterInfo ] 1
|  8>     print[ P_OrbEn ] 0
|  9>     print[ P_Cartesian ] 0
| 10> end
| 11> *xyz 0 1
| 12>  O        0.8309450000     0.3310460000     0.4447160000
| 13>  N        2.1944550000     0.3258890000     0.6320270000
| 14>  C        2.8060550000     0.9349350000    -0.2908040000
| 15>  C        4.3052720000     0.9996990000    -0.2348160000
| 16>  O        4.8906320000     0.2992070000    -1.3180030000
| 17>  C        4.7520720000     2.3903830000    -0.1838300000
| 18>  C        5.1010190000     3.5388270000    -0.1823120000
| 19>  H        0.5029150000    -0.1642180000     1.2009110000
| 20>  H        2.2815690000     1.3989910000    -1.1276380000
| 21>  H        4.6217500000     0.4813030000     0.6744050000
| 22>  H        4.9117700000     0.8851340000    -2.0805230000
| 23>  H        5.4183250000     4.5550950000    -0.1674340000
| 24> *
| 25>
| 26>                          ****END OF INPUT****
 Total Charge           Charge          ....    0
 Multiplicity           Mult            ....    1
 Number of Electrons    NEL             ....   52
 Basis Dimension        Dim             ....  123

MULLIKEN ATOMIC CHARGES
-----------------------
   0 O :   -0.167775
   1 N :   -0.038750
   2 C :   -0.004598
   3 C :    0.240489
   4 O :   -0.259582
   5 C :    0.326877
   6 C :   -0.470296
   7 H :    0.175365
   8 H :    0.002838
   9 H :    0.028319
  10 H :    0.159386
  11 H :    0.007728
Sum of atomic charges:    0.0000000

LOEWDIN ATOMIC CHARGES
----------------------
   0 O :   -0.044347
   1 N :   -0.004565
   2 C :   -0.036516
   3 C :    0.032653
   4 O :   -0.089595
   5 C :   -0.038640
   6 C :   -0.061858
   7 H :    0.077090
   8 H :    0.007327
   9 H :    0.047651
  10 H :    0.071986
  11 H :    0.038814

  Mayer bond orders larger than 0.1
B(  0-O ,  1-N ) :   1.0032 B(  0-O ,  2-C ) :   0.1170 B(  0-O ,  7-H ) :   0.9738
B(  1-N ,  2-C ) :   1.8985 B(  2-C ,  3-C ) :   0.9889 B(  2-C ,  8-H ) :   0.9323
B(  3-C ,  4-O ) :   1.0238 B(  3-C ,  5-C ) :   0.9632 B(  3-C ,  9-H ) :   0.8694
B(  4-O , 10-H ) :   0.9772 B(  5-C ,  6-C ) :   2.3675 B(  5-C , 11-H ) :  -0.1110
B(  6-C , 11-H ) :   1.1010

FINAL SINGLE POINT ENERGY      -359.797625185483

DIPOLE MOMENT
-------------
                                X             Y             Z
Electronic contribution:     -0.60056      -0.75861       0.52710
Nuclear contribution   :      0.33376       1.17748      -0.58984
                        -----------------------------------------
Total Dipole Moment    :     -0.26680       0.41886      -0.06274
                        -----------------------------------------
Magnitude (a.u.)       :      0.50056
Magnitude (Debye)      :      1.27233

                             ****ORCA TERMINATED NORMALLY****
TOTAL RUN TIME: 0 days 0 hours 0 minutes 5 seconds 551 msec
