                         Program Version 3.0.3 - RELEASE   -
|  1> ! RI PBE def2-SVP def2-SVP/J NBO PAL2
|  2> % maxcore 2000
|  3> % output
|  4>     # printlevel mini
|  5>     print[ P_Basis ] 0
|  6>     print[ P_SCFInfo ] 1
|  7>     print[ P_SCFIterInfo ] 1
|  8>     print[ P_OrbEn ] 0
|  9>     print[ P_Cartesian ] 0
| 10> end
| 11> *xyz 0 1
| 12>  O        0.8904540000     0.7586880000     0.4579820000
| 13>  N        2.1959200000     0.3249530000     0.3965690000
| 14>  C        2.5265420000    -0.0242460000    -0.7730770000
| 15>  C        3.9212230000    -0.4731860000    -1.0181410000
| 16>  O        3.8692820000    -1.7364700000    -1.6510620000
| 17>  C        5.0496090000    -2.2808140000    -2.0015180000
| 18>  C        6.2693560000    -1.7878340000    -1.8113100000
| 19>  H        0.7721980000     0.9697440000     1.3885180000
| 20>  H        1.8196120000     0.0101020000    -1.6030320000
| 21>  H        4.4663330000    -0.5296400000    -0.0702960000
| 22>  H        4.4393520000     0.2392350000    -1.6758880000
| 23>  H        4.8874250000    -3.2352820000    -2.4906250000
| 24>  H        6.4665330000    -0.8437240000    -1.3225310000
| 25>  H        7.1183610000    -2.3595280000    -2.1588890000
| 26> *
| 27>
| 28>                          ****END OF INPUT****
 Total Charge           Charge          ....    0
 Multiplicity           Mult            ....    1
 Number of Electrons    NEL             ....   54
 Basis Dimension        Dim             ....  133

MULLIKEN ATOMIC CHARGES
-----------------------
   0 O :   -0.169989
   1 N :   -0.040393
   2 C :   -0.052430
   3 C :    0.211714
   4 O :   -0.265213
   5 C :    0.107453
   6 C :   -0.116745
   7 H :    0.175530
   8 H :    0.016939
   9 H :    0.030403
  10 H :    0.033939
  11 H :    0.014864
  12 H :    0.028109
  13 H :    0.025819
Sum of atomic charges:    0.0000000

LOEWDIN ATOMIC CHARGES
----------------------
   0 O :   -0.044989
   1 N :   -0.004577
   2 C :   -0.040994
   3 C :    0.061584
   4 O :   -0.066953
   5 C :    0.033296
   6 C :   -0.156391
   7 H :    0.076980
   8 H :    0.011289
   9 H :    0.024607
  10 H :    0.025461
  11 H :    0.024779
  12 H :    0.022905
  13 H :    0.033004

  Mayer bond orders larger than 0.1
B(  0-O ,  1-N ) :   1.0078 B(  0-O ,  2-C ) :   0.1198 B(  0-O ,  7-H ) :   0.9744
B(  1-N ,  2-C ) :   1.9124 B(  2-C ,  3-C ) :   1.0259 B(  2-C ,  8-H ) :   0.9440
B(  3-C ,  4-O ) :   0.9484 B(  3-C ,  9-H ) :   0.9249 B(  3-C , 10-H ) :   0.9112
B(  4-O ,  5-C ) :   1.1589 B(  4-O ,  6-C ) :   0.1028 B(  5-C ,  6-C ) :   1.8631
B(  5-C , 11-H ) :   0.9639 B(  6-C , 12-H ) :   0.9518 B(  6-C , 13-H ) :   0.9361

FINAL SINGLE POINT ENERGY      -361.044488057853

DIPOLE MOMENT
-------------
                                X             Y             Z
Electronic contribution:     -5.35968       1.04213       1.85632
Nuclear contribution   :      5.31026      -0.72224      -1.65639
                        -----------------------------------------
Total Dipole Moment    :     -0.04942       0.31990       0.19993
                        -----------------------------------------
Magnitude (a.u.)       :      0.38046
Magnitude (Debye)      :      0.96704

                             ****ORCA TERMINATED NORMALLY****
TOTAL RUN TIME: 0 days 0 hours 0 minutes 5 seconds 909 msec
