                         Program Version 3.0.3 - RELEASE   -
|  1> ! RI PBE def2-SVP def2-SVP/J NBO PAL2
|  2> % maxcore 2000
|  3> % output
|  4>     # printlevel mini
|  5>     print[ P_Basis ] 0
|  6>     print[ P_SCFInfo ] 1
|  7>     print[ P_SCFIterInfo ] 1
|  8>     print[ P_OrbEn ] 0
|  9>     print[ P_Cartesian ] 0
| 10> end
| 11> *xyz 0 1
| 12>  O        0.9923750000    -0.8849430000    -0.5519850000
| 13>  N        2.2952470000    -1.1515110000    -1.0061000000
| 14>  C        3.1187610000    -0.3479620000    -0.4525630000
| 15>  N        4.4377430000    -0.3938330000    -0.7190810000
| 16>  C        5.5646880000     0.3793120000    -0.2440710000
| 17>  C        6.4703700000    -0.4864850000    -1.1514220000
| 18>  C        5.2031110000    -1.2524400000    -1.5941520000
| 19>  H        0.4736790000    -1.5374320000    -1.0271980000
| 20>  H        2.7962520000     0.4124250000     0.2604710000
| 21>  H        5.7593890000     0.2865500000     0.8306890000
| 22>  H        5.5281960000     1.4436830000    -0.5035920000
| 23>  H        7.2025960000    -1.0885680000    -0.6165000000
| 24>  H        6.9704610000     0.0633810000    -1.9466440000
| 25>  H        5.1646450000    -2.3121210000    -1.3195270000
| 26>  H        4.9335970000    -1.1604470000    -2.6518240000
| 27> *
| 28>
| 29>                          ****END OF INPUT****
 Total Charge           Charge          ....    0
 Multiplicity           Mult            ....    1
 Number of Electrons    NEL             ....   54
 Basis Dimension        Dim             ....  138

MULLIKEN ATOMIC CHARGES
-----------------------
   0 O :   -0.206988
   1 N :   -0.129092
   2 C :    0.089680
   3 N :   -0.292526
   4 C :    0.159886
   5 C :   -0.100243
   6 C :    0.170431
   7 H :    0.163815
   8 H :   -0.005556
   9 H :    0.022038
  10 H :    0.022711
  11 H :    0.028037
  12 H :    0.029145
  13 H :    0.024248
  14 H :    0.024412
Sum of atomic charges:   -0.0000000

LOEWDIN ATOMIC CHARGES
----------------------
   0 O :   -0.082598
   1 N :   -0.101227
   2 C :   -0.027733
   3 N :   -0.040193
   4 C :    0.047235
   5 C :   -0.034328
   6 C :    0.049558
   7 H :    0.066565
   8 H :    0.001884
   9 H :    0.014717
  10 H :    0.014974
  11 H :    0.027614
  12 H :    0.027947
  13 H :    0.017881
  14 H :    0.017703

  Mayer bond orders larger than 0.1
B(  0-O ,  1-N ) :   0.9522 B(  0-O ,  7-H ) :   0.9812 B(  1-N ,  2-C ) :   1.7620
B(  2-C ,  3-N ) :   1.1679 B(  2-C ,  8-H ) :   0.9361 B(  3-N ,  4-C ) :   1.0242
B(  3-N ,  6-C ) :   1.0154 B(  4-C ,  5-C ) :   1.1190 B(  4-C ,  9-H ) :   0.9319
B(  4-C , 10-H ) :   0.9320 B(  5-C ,  6-C ) :   1.1150 B(  5-C , 11-H ) :   0.9303
B(  5-C , 12-H ) :   0.9300 B(  6-C , 13-H ) :   0.9339 B(  6-C , 14-H ) :   0.9346

FINAL SINGLE POINT ENERGY      -341.209677694193

DIPOLE MOMENT
-------------
                                X             Y             Z
Electronic contribution:     -6.05260      -0.71787       0.41958
Nuclear contribution   :      6.85551       0.85763      -0.43987
                        -----------------------------------------
Total Dipole Moment    :      0.80290       0.13976      -0.02029
                        -----------------------------------------
Magnitude (a.u.)       :      0.81523
Magnitude (Debye)      :      2.07214

                             ****ORCA TERMINATED NORMALLY****
TOTAL RUN TIME: 0 days 0 hours 0 minutes 7 seconds 14 msec
