                         Program Version 3.0.3 - RELEASE   -
|  1> ! RI PBE def2-SVP def2-SVP/J NBO PAL2
|  2> % maxcore 2000
|  3> % output
|  4>     # printlevel mini
|  5>     print[ P_Basis ] 0
|  6>     print[ P_SCFInfo ] 1
|  7>     print[ P_SCFIterInfo ] 1
|  8>     print[ P_OrbEn ] 0
|  9>     print[ P_Cartesian ] 0
| 10> end
| 11> *xyz 0 1
| 12>  O        4.9497160000     0.5195330000     2.3990900000
| 13>  N        4.5248030000     0.5873610000     1.0676730000
| 14>  C        4.7697040000    -0.5044700000     0.4662180000
| 15>  N        4.3461030000    -0.7230000000    -0.8198980000
| 16>  C        5.1186020000    -1.5660080000    -1.6728480000
| 17>  C        4.9998030000    -3.0472940000    -1.4864080000
| 18>  C        4.3827420000    -2.3877910000    -2.6807720000
| 19>  H        4.7367580000     1.3953620000     2.7289570000
| 20>  H        5.2869300000    -1.3329170000     0.9502620000
| 21>  H        3.9539460000     0.0984850000    -1.2584900000
| 22>  H        6.0984330000    -1.1946710000    -1.9704720000
| 23>  H        4.3300440000    -3.3903780000    -0.7083150000
| 24>  H        5.8891260000    -3.6481010000    -1.6263920000
| 25>  H        3.3044470000    -2.2921860000    -2.6908210000
| 26>  H        4.8422330000    -2.5327240000    -3.6498930000
| 27> *
| 28>
| 29>                          ****END OF INPUT****
 Total Charge           Charge          ....    0
 Multiplicity           Mult            ....    1
 Number of Electrons    NEL             ....   54
 Basis Dimension        Dim             ....  138

MULLIKEN ATOMIC CHARGES
-----------------------
   0 O :   -0.202987
   1 N :   -0.100951
   2 C :    0.054448
   3 N :   -0.103025
   4 C :   -0.056115
   5 C :   -0.034235
   6 C :   -0.029870
   7 H :    0.165589
   8 H :    0.004293
   9 H :    0.112666
  10 H :    0.023452
  11 H :    0.045039
  12 H :    0.043134
  13 H :    0.043123
  14 H :    0.035438
Sum of atomic charges:    0.0000000

LOEWDIN ATOMIC CHARGES
----------------------
   0 O :   -0.077247
   1 N :   -0.085158
   2 C :   -0.018768
   3 N :   -0.006799
   4 C :    0.000656
   5 C :   -0.045521
   6 C :   -0.046829
   7 H :    0.068367
   8 H :    0.003436
   9 H :    0.071881
  10 H :    0.012925
  11 H :    0.032258
  12 H :    0.030224
  13 H :    0.031519
  14 H :    0.029056

  Mayer bond orders larger than 0.1
B(  0-O ,  1-N ) :   0.9606 B(  0-O ,  7-H ) :   0.9800 B(  1-N ,  2-C ) :   1.8030
B(  2-C ,  3-N ) :   1.1579 B(  2-C ,  8-H ) :   0.9326 B(  3-N ,  4-C ) :   1.0581
B(  3-N ,  9-H ) :   0.9244 B(  4-C ,  5-C ) :   0.9956 B(  4-C ,  6-C ) :   0.9995
B(  4-C , 10-H ) :   0.9347 B(  5-C ,  6-C ) :   1.0446 B(  5-C , 11-H ) :   0.9456
B(  5-C , 12-H ) :   0.9493 B(  6-C , 13-H ) :   0.9477 B(  6-C , 14-H ) :   0.9456

FINAL SINGLE POINT ENERGY      -341.211869002901

DIPOLE MOMENT
-------------
                                X             Y             Z
Electronic contribution:     -0.44764       4.71337       4.78678
Nuclear contribution   :      0.55835      -4.81614      -5.34930
                        -----------------------------------------
Total Dipole Moment    :      0.11070      -0.10277      -0.56252
                        -----------------------------------------
Magnitude (a.u.)       :      0.58244
Magnitude (Debye)      :      1.48046

                             ****ORCA TERMINATED NORMALLY****
TOTAL RUN TIME: 0 days 0 hours 0 minutes 5 seconds 774 msec
