                         Program Version 3.0.3 - RELEASE   -
|  1> ! RI PBE def2-SVP def2-SVP/J NBO PAL2
|  2> % maxcore 2000
|  3> % output
|  4>     # printlevel mini
|  5>     print[ P_Basis ] 0
|  6>     print[ P_SCFInfo ] 1
|  7>     print[ P_SCFIterInfo ] 1
|  8>     print[ P_OrbEn ] 0
|  9>     print[ P_Cartesian ] 0
| 10> end
| 11> *xyz 0 1
| 12>  O        1.9881390000    -1.7407040000    -1.3007180000
| 13>  N        3.2672750000    -1.2792210000    -0.9659730000
| 14>  C        3.7542680000    -0.3591040000    -1.8888980000
| 15>  N        3.3273100000    -0.1097700000    -3.0496610000
| 16>  C        3.3626980000    -0.9526740000     0.4206860000
| 17>  C        3.6391760000    -2.0638210000     1.3803670000
| 18>  C        4.7113650000    -1.0716530000     1.0564280000
| 19>  H        2.0972890000    -2.6909840000    -1.4106950000
| 20>  H        4.6455520000     0.1411740000    -1.5085060000
| 21>  H        2.4780740000    -0.6453080000    -3.2311850000
| 22>  H        2.7114260000    -0.1499290000     0.7602470000
| 23>  H        3.7435890000    -3.0586880000     0.9660890000
| 24>  H        3.1621980000    -2.0189590000     2.3506530000
| 25>  H        5.5263660000    -1.4085930000     0.4290590000
| 26>  H        4.9812640000    -0.3305660000     1.7973960000
| 27> *
| 28>
| 29>                          ****END OF INPUT****
 Total Charge           Charge          ....    0
 Multiplicity           Mult            ....    1
 Number of Electrons    NEL             ....   54
 Basis Dimension        Dim             ....  138

MULLIKEN ATOMIC CHARGES
-----------------------
   0 O :   -0.191879
   1 N :   -0.122438
   2 C :    0.022254
   3 N :   -0.122866
   4 C :   -0.014062
   5 C :   -0.014180
   6 C :   -0.034885
   7 H :    0.185126
   8 H :    0.013286
   9 H :    0.077690
  10 H :    0.033220
  11 H :    0.031957
  12 H :    0.041992
  13 H :    0.046950
  14 H :    0.047836
Sum of atomic charges:   -0.0000000

LOEWDIN ATOMIC CHARGES
----------------------
   0 O :   -0.059642
   1 N :    0.013305
   2 C :    0.001392
   3 N :   -0.143086
   4 C :   -0.004749
   5 C :   -0.045523
   6 C :   -0.038822
   7 H :    0.077611
   8 H :    0.016774
   9 H :    0.036332
  10 H :    0.018668
  11 H :    0.028447
  12 H :    0.032405
  13 H :    0.033138
  14 H :    0.033749

  Mayer bond orders larger than 0.1
B(  0-O ,  1-N ) :   0.9421 B(  0-O ,  7-H ) :   0.9727 B(  1-N ,  2-C ) :   1.0441
B(  1-N ,  4-C ) :   0.9936 B(  2-C ,  3-N ) :   2.0471 B(  2-C ,  8-H ) :   0.9376
B(  3-N ,  9-H ) :   0.9304 B(  4-C ,  5-C ) :   0.9955 B(  4-C ,  6-C ) :   0.9828
B(  4-C , 10-H ) :   0.9362 B(  5-C ,  6-C ) :   1.0508 B(  5-C , 11-H ) :   0.9420
B(  5-C , 12-H ) :   0.9433 B(  6-C , 13-H ) :   0.9450 B(  6-C , 14-H ) :   0.9459

FINAL SINGLE POINT ENERGY      -341.202119279284

DIPOLE MOMENT
-------------
                                X             Y             Z
Electronic contribution:     -2.05515       0.31275      -3.90004
Nuclear contribution   :      2.05669      -1.22015       5.01187
                        -----------------------------------------
Total Dipole Moment    :      0.00154      -0.90740       1.11183
                        -----------------------------------------
Magnitude (a.u.)       :      1.43512
Magnitude (Debye)      :      3.64778

                             ****ORCA TERMINATED NORMALLY****
TOTAL RUN TIME: 0 days 0 hours 0 minutes 6 seconds 763 msec
