                         Program Version 3.0.3 - RELEASE   -
|  1> ! RI PBE def2-SVP def2-SVP/J NBO PAL2
|  2> % maxcore 2000
|  3> % output
|  4>     # printlevel mini
|  5>     print[ P_Basis ] 0
|  6>     print[ P_SCFInfo ] 1
|  7>     print[ P_SCFIterInfo ] 1
|  8>     print[ P_OrbEn ] 0
|  9>     print[ P_Cartesian ] 0
| 10> end
| 11> *xyz 0 1
| 12>  O        1.2399060000    -0.1814350000     0.9664240000
| 13>  N        2.3393540000    -0.6579230000     0.2523670000
| 14>  C        3.2671420000     0.3314000000    -0.0902030000
| 15>  N        3.0605950000     1.5799100000    -0.0799060000
| 16>  C        4.5544050000    -0.2524900000    -0.5367670000
| 17>  C        5.4123480000     0.5432090000    -1.4771850000
| 18>  C        5.8292410000     0.3959160000    -0.0582190000
| 19>  H        0.4897650000    -0.3606590000     0.3905730000
| 20>  H        2.7487250000    -1.4258490000     0.7715060000
| 21>  H        2.1416450000     1.7820390000     0.3080460000
| 22>  H        4.5612060000    -1.3304160000    -0.6565640000
| 23>  H        5.0040850000     1.5003890000    -1.7749120000
| 24>  H        5.9542260000    -0.0037980000    -2.2382180000
| 25>  H        5.7023210000     1.2566080000     0.5858330000
| 26>  H        6.6624250000    -0.2543130000     0.1777160000
| 27> *
| 28>
| 29>                          ****END OF INPUT****
 Total Charge           Charge          ....    0
 Multiplicity           Mult            ....    1
 Number of Electrons    NEL             ....   54
 Basis Dimension        Dim             ....  138

MULLIKEN ATOMIC CHARGES
-----------------------
   0 O :   -0.220683
   1 N :   -0.028565
   2 C :   -0.085792
   3 N :   -0.090646
   4 C :   -0.120463
   5 C :    0.004133
   6 C :   -0.017696
   7 H :    0.186679
   8 H :    0.127930
   9 H :    0.078092
  10 H :   -0.000627
  11 H :    0.050112
  12 H :    0.032089
  13 H :    0.050979
  14 H :    0.034458
Sum of atomic charges:    0.0000000

LOEWDIN ATOMIC CHARGES
----------------------
   0 O :   -0.073928
   1 N :    0.034558
   2 C :   -0.009624
   3 N :   -0.160794
   4 C :   -0.065772
   5 C :   -0.021279
   6 C :   -0.025588
   7 H :    0.078202
   8 H :    0.063247
   9 H :    0.035836
  10 H :    0.024560
  11 H :    0.034382
  12 H :    0.026852
  13 H :    0.033412
  14 H :    0.025937

  Mayer bond orders larger than 0.1
B(  0-O ,  1-N ) :   0.9788 B(  0-O ,  7-H ) :   0.9733 B(  1-N ,  2-C ) :   1.0723
B(  1-N ,  8-H ) :   0.9217 B(  2-C ,  3-N ) :   2.0530 B(  2-C ,  4-C ) :   1.0103
B(  3-N ,  9-H ) :   0.9119 B(  4-C ,  5-C ) :   0.9851 B(  4-C ,  6-C ) :   0.9616
B(  4-C , 10-H ) :   0.9315 B(  5-C ,  6-C ) :   1.0621 B(  5-C , 11-H ) :   0.9344
B(  5-C , 12-H ) :   0.9459 B(  6-C , 13-H ) :   0.9423 B(  6-C , 14-H ) :   0.9487

FINAL SINGLE POINT ENERGY      -341.214396666135

DIPOLE MOMENT
-------------
                                X             Y             Z
Electronic contribution:     -4.73260      -0.41973       1.51319
Nuclear contribution   :      4.32888      -0.66668      -1.47657
                        -----------------------------------------
Total Dipole Moment    :     -0.40372      -1.08640       0.03662
                        -----------------------------------------
Magnitude (a.u.)       :      1.15957
Magnitude (Debye)      :      2.94739

                             ****ORCA TERMINATED NORMALLY****
TOTAL RUN TIME: 0 days 0 hours 0 minutes 6 seconds 708 msec
