                         Program Version 3.0.3 - RELEASE   -
|  1> ! RI PBE def2-SVP def2-SVP/J NBO PAL2
|  2> % maxcore 2000
|  3> % output
|  4>     # printlevel mini
|  5>     print[ P_Basis ] 0
|  6>     print[ P_SCFInfo ] 1
|  7>     print[ P_SCFIterInfo ] 1
|  8>     print[ P_OrbEn ] 0
|  9>     print[ P_Cartesian ] 0
| 10> end
| 11> *xyz 0 1
| 12>  O        1.4696050000    -1.7687130000    -0.7213340000
| 13>  N        2.6757740000    -1.8706350000    -0.0158700000
| 14>  C        3.5331400000    -1.0627030000    -0.4968480000
| 15>  N        4.8245280000    -1.0286740000    -0.0531260000
| 16>  C        5.2028030000    -1.7749170000     1.1277780000
| 17>  C        6.6850810000    -1.7756750000     1.2932870000
| 18>  C        7.3147330000    -1.3328680000     2.3718950000
| 19>  H        0.9071670000    -2.3944240000    -0.2595890000
| 20>  H        3.2872190000    -0.3860280000    -1.3153270000
| 21>  H        5.2927930000    -0.1455050000    -0.1743320000
| 22>  H        4.8350580000    -2.7971010000     0.9909780000
| 23>  H        4.7129840000    -1.3879960000     2.0318820000
| 24>  H        7.2553650000    -2.1730010000     0.4562570000
| 25>  H        6.7680450000    -0.9276710000     3.2180240000
| 26>  H        8.3947160000    -1.3687780000     2.4548350000
| 27> *
| 28>
| 29>                          ****END OF INPUT****
 Total Charge           Charge          ....    0
 Multiplicity           Mult            ....    1
 Number of Electrons    NEL             ....   54
 Basis Dimension        Dim             ....  138

MULLIKEN ATOMIC CHARGES
-----------------------
   0 O :   -0.200519
   1 N :   -0.132108
   2 C :    0.072413
   3 N :   -0.183898
   4 C :    0.202019
   5 C :   -0.123041
   6 C :   -0.033609
   7 H :    0.165549
   8 H :    0.001624
   9 H :    0.120559
  10 H :    0.036492
  11 H :    0.003543
  12 H :    0.014402
  13 H :    0.023972
  14 H :    0.032603
Sum of atomic charges:    0.0000000

LOEWDIN ATOMIC CHARGES
----------------------
   0 O :   -0.077842
   1 N :   -0.092034
   2 C :   -0.020696
   3 N :   -0.016981
   4 C :    0.024485
   5 C :   -0.041135
   6 C :   -0.056304
   7 H :    0.068084
   8 H :    0.001922
   9 H :    0.073491
  10 H :    0.039588
  11 H :    0.017697
  12 H :    0.028307
  13 H :    0.024015
  14 H :    0.027403

  Mayer bond orders larger than 0.1
B(  0-O ,  1-N ) :   0.9574 B(  0-O ,  7-H ) :   0.9803 B(  1-N ,  2-C ) :   1.7567
B(  2-C ,  3-N ) :   1.1876 B(  2-C ,  8-H ) :   0.9384 B(  3-N ,  4-C ) :   0.9809
B(  3-N ,  9-H ) :   0.9342 B(  4-C ,  5-C ) :   1.0561 B(  4-C , 10-H ) :   0.9097
B(  4-C , 11-H ) :   0.9284 B(  5-C ,  6-C ) :   1.9985 B(  5-C , 12-H ) :   0.9575
B(  6-C , 13-H ) :   0.9475 B(  6-C , 14-H ) :   0.9474

FINAL SINGLE POINT ENERGY      -341.213786904674

DIPOLE MOMENT
-------------
                                X             Y             Z
Electronic contribution:     -5.17079      -0.23202      -3.23134
Nuclear contribution   :      5.59805       0.52699       3.43206
                        -----------------------------------------
Total Dipole Moment    :      0.42727       0.29497       0.20072
                        -----------------------------------------
Magnitude (a.u.)       :      0.55664
Magnitude (Debye)      :      1.41488

                             ****ORCA TERMINATED NORMALLY****
TOTAL RUN TIME: 0 days 0 hours 0 minutes 6 seconds 248 msec
