                         Program Version 3.0.3 - RELEASE   -
|  1> ! RI PBE def2-SVP def2-SVP/J NBO PAL2
|  2> % maxcore 2000
|  3> % output
|  4>     # printlevel mini
|  5>     print[ P_Basis ] 0
|  6>     print[ P_SCFInfo ] 1
|  7>     print[ P_SCFIterInfo ] 1
|  8>     print[ P_OrbEn ] 0
|  9>     print[ P_Cartesian ] 0
| 10> end
| 11> *xyz 0 1
| 12>  O        0.9105060000    -1.4403110000     0.9671700000
| 13>  N        2.2504780000    -1.5314060000     1.3550740000
| 14>  C        2.9557380000    -0.6979860000     0.7065810000
| 15>  N        4.2869270000    -0.5033320000     0.9731630000
| 16>  C        4.9887960000    -1.4348370000     1.8309140000
| 17>  C        5.4021540000    -2.6707740000     1.1703190000
| 18>  C        5.7683410000    -3.6662650000     0.6089880000
| 19>  H        0.5000150000    -2.1459330000     1.4721730000
| 20>  H        2.5260410000    -0.0553350000    -0.0615580000
| 21>  H        4.8198510000    -0.1633510000     0.1892160000
| 22>  H        4.3294440000    -1.6718410000     2.6689400000
| 23>  H        5.8708520000    -0.9332550000     2.2385990000
| 24>  H        6.0796570000    -4.5560650000     0.1148100000
| 25> *
| 26>
| 27>                          ****END OF INPUT****
 Total Charge           Charge          ....    0
 Multiplicity           Mult            ....    1
 Number of Electrons    NEL             ....   52
 Basis Dimension        Dim             ....  128

MULLIKEN ATOMIC CHARGES
-----------------------
   0 O :   -0.196014
   1 N :   -0.120212
   2 C :    0.071979
   3 N :   -0.160441
   4 C :    0.207291
   5 C :    0.285566
   6 C :   -0.475326
   7 H :    0.167774
   8 H :    0.005088
   9 H :    0.124350
  10 H :    0.049336
  11 H :    0.039347
  12 H :    0.001263
Sum of atomic charges:    0.0000000

LOEWDIN ATOMIC CHARGES
----------------------
   0 O :   -0.072766
   1 N :   -0.084355
   2 C :   -0.016225
   3 N :   -0.008760
   4 C :    0.015450
   5 C :   -0.038604
   6 C :   -0.077547
   7 H :    0.069894
   8 H :    0.004034
   9 H :    0.076031
  10 H :    0.051873
  11 H :    0.045682
  12 H :    0.035294

  Mayer bond orders larger than 0.1
B(  0-O ,  1-N ) :   0.9638 B(  0-O ,  7-H ) :   0.9791 B(  1-N ,  2-C ) :   1.7820
B(  2-C ,  3-N ) :   1.1678 B(  2-C ,  8-H ) :   0.9344 B(  3-N ,  4-C ) :   1.0473
B(  3-N ,  9-H ) :   0.9354 B(  4-C ,  5-C ) :   1.0485 B(  4-C , 10-H ) :   0.8782
B(  4-C , 11-H ) :   0.9126 B(  5-C ,  6-C ) :   2.3774 B(  5-C , 12-H ) :  -0.1060
B(  6-C , 12-H ) :   1.0967

FINAL SINGLE POINT ENERGY      -339.967144506024

DIPOLE MOMENT
-------------
                                X             Y             Z
Electronic contribution:     -1.49613      -0.29302      -0.26627
Nuclear contribution   :      1.93039       0.41905       0.09482
                        -----------------------------------------
Total Dipole Moment    :      0.43426       0.12602      -0.17145
                        -----------------------------------------
Magnitude (a.u.)       :      0.48359
Magnitude (Debye)      :      1.22919

                             ****ORCA TERMINATED NORMALLY****
TOTAL RUN TIME: 0 days 0 hours 0 minutes 6 seconds 72 msec
