                         Program Version 3.0.3 - RELEASE   -
|  1> ! RI PBE def2-SVP def2-SVP/J NBO PAL2
|  2> % maxcore 2000
|  3> % output
|  4>     # printlevel mini
|  5>     print[ P_Basis ] 0
|  6>     print[ P_SCFInfo ] 1
|  7>     print[ P_SCFIterInfo ] 1
|  8>     print[ P_OrbEn ] 0
|  9>     print[ P_Cartesian ] 0
| 10> end
| 11> *xyz 0 1
| 12>  O        1.1477480000     0.4264980000    -3.1101120000
| 13>  N        2.4362490000     0.1556430000    -2.6496580000
| 14>  C        2.7823410000     0.8353510000    -1.4832990000
| 15>  N        1.9870210000     1.3927020000    -0.6729530000
| 16>  C        4.2681630000     0.7894920000    -1.2222610000
| 17>  C        5.0563960000     1.4840670000    -2.2885950000
| 18>  C        5.9609610000     0.9014080000    -3.0644910000
| 19>  H        0.6981010000    -0.4234080000    -3.0668310000
| 20>  H        3.0947200000     0.3042670000    -3.4064670000
| 21>  H        1.0340750000     1.3440300000    -1.0337790000
| 22>  H        4.5927150000    -0.2523230000    -1.1385440000
| 23>  H        4.4162560000     1.2750240000    -0.2557770000
| 24>  H        4.8457410000     2.5441170000    -2.4169650000
| 25>  H        6.2020980000    -0.1524460000    -2.9607070000
| 26>  H        6.5033150000     1.4585680000    -3.8195700000
| 27> *
| 28>
| 29>                          ****END OF INPUT****
 Total Charge           Charge          ....    0
 Multiplicity           Mult            ....    1
 Number of Electrons    NEL             ....   54
 Basis Dimension        Dim             ....  138

MULLIKEN ATOMIC CHARGES
-----------------------
   0 O :   -0.219093
   1 N :   -0.010227
   2 C :   -0.215758
   3 N :   -0.067095
   4 C :    0.162934
   5 C :   -0.130010
   6 C :   -0.025762
   7 H :    0.186201
   8 H :    0.124402
   9 H :    0.076603
  10 H :    0.022795
  11 H :    0.023945
  12 H :    0.018120
  13 H :    0.021876
  14 H :    0.031068
Sum of atomic charges:   -0.0000000

LOEWDIN ATOMIC CHARGES
----------------------
   0 O :   -0.072969
   1 N :    0.035726
   2 C :   -0.019244
   3 N :   -0.147293
   4 C :   -0.043475
   5 C :   -0.031813
   6 C :   -0.066030
   7 H :    0.077594
   8 H :    0.059340
   9 H :    0.035536
  10 H :    0.038655
  11 H :    0.051150
  12 H :    0.032518
  13 H :    0.022925
  14 H :    0.027380

  Mayer bond orders larger than 0.1
B(  0-O ,  1-N ) :   0.9794 B(  0-O ,  7-H ) :   0.9738 B(  1-N ,  2-C ) :   1.0816
B(  1-N ,  8-H ) :   0.9155 B(  2-C ,  3-N ) :   2.0969 B(  2-C ,  4-C ) :   0.9787
B(  3-N ,  9-H ) :   0.9135 B(  4-C ,  5-C ) :   1.0709 B(  4-C , 10-H ) :   0.9159
B(  4-C , 11-H ) :   0.8829 B(  5-C ,  6-C ) :   1.9702 B(  5-C , 12-H ) :   0.9576
B(  6-C , 13-H ) :   0.9485 B(  6-C , 14-H ) :   0.9443

FINAL SINGLE POINT ENERGY      -341.214764740791

DIPOLE MOMENT
-------------
                                X             Y             Z
Electronic contribution:     -4.60734      -0.23443       0.28340
Nuclear contribution   :      4.74235      -0.49457      -1.14721
                        -----------------------------------------
Total Dipole Moment    :      0.13501      -0.72901      -0.86380
                        -----------------------------------------
Magnitude (a.u.)       :      1.13835
Magnitude (Debye)      :      2.89345

                             ****ORCA TERMINATED NORMALLY****
TOTAL RUN TIME: 0 days 0 hours 0 minutes 6 seconds 659 msec
