                         Program Version 3.0.3 - RELEASE   -
|  1> ! RI PBE def2-SVP def2-SVP/J NBO PAL2
|  2> % maxcore 2000
|  3> % output
|  4>     # printlevel mini
|  5>     print[ P_Basis ] 0
|  6>     print[ P_SCFInfo ] 1
|  7>     print[ P_SCFIterInfo ] 1
|  8>     print[ P_OrbEn ] 0
|  9>     print[ P_Cartesian ] 0
| 10> end
| 11> *xyz 0 1
| 12>  O        1.2479550000     0.1768050000    -0.5138580000
| 13>  N        2.6062420000     0.0517490000    -0.2324940000
| 14>  C        2.8949470000    -0.8694260000     0.7656240000
| 15>  N        2.1369490000    -1.7770270000     1.2099820000
| 16>  C        4.3295870000    -0.7839190000     1.2451310000
| 17>  C        4.8255430000     0.5703940000     1.4263120000
| 18>  C        5.2194590000     1.6959970000     1.5652410000
| 19>  H        1.1693500000    -0.1018450000    -1.4319670000
| 20>  H        3.0023010000     0.9696810000    -0.0615130000
| 21>  H        1.2169860000    -1.7050310000     0.7764680000
| 22>  H        4.9653960000    -1.3067600000     0.5218570000
| 23>  H        4.3793280000    -1.3418410000     2.1815170000
| 24>  H        5.5793380000     2.6885320000     1.7019010000
| 25> *
| 26>
| 27>                          ****END OF INPUT****
 Total Charge           Charge          ....    0
 Multiplicity           Mult            ....    1
 Number of Electrons    NEL             ....   52
 Basis Dimension        Dim             ....  128

MULLIKEN ATOMIC CHARGES
-----------------------
   0 O :   -0.215787
   1 N :   -0.010429
   2 C :   -0.206903
   3 N :   -0.080835
   4 C :    0.203688
   5 C :    0.249409
   6 C :   -0.468054
   7 H :    0.186878
   8 H :    0.136346
   9 H :    0.081308
  10 H :    0.069044
  11 H :    0.050484
  12 H :    0.004852
Sum of atomic charges:   -0.0000000

LOEWDIN ATOMIC CHARGES
----------------------
   0 O :   -0.069126
   1 N :    0.039403
   2 C :   -0.014684
   3 N :   -0.146820
   4 C :   -0.046374
   5 C :   -0.030456
   6 C :   -0.084775
   7 H :    0.078558
   8 H :    0.065226
   9 H :    0.038531
  10 H :    0.067049
  11 H :    0.066159
  12 H :    0.037309

  Mayer bond orders larger than 0.1
B(  0-O ,  1-N ) :   0.9811 B(  0-O ,  7-H ) :   0.9728 B(  1-N ,  2-C ) :   1.0922
B(  1-N ,  8-H ) :   0.9043 B(  2-C ,  3-N ) :   2.0912 B(  2-C ,  4-C ) :   0.9564
B(  3-N ,  9-H ) :   0.9156 B(  4-C ,  5-C ) :   1.0306 B(  4-C , 10-H ) :   0.8873
B(  4-C , 11-H ) :   0.8843 B(  5-C ,  6-C ) :   2.3661 B(  5-C , 12-H ) :  -0.1087
B(  6-C , 12-H ) :   1.0998

FINAL SINGLE POINT ENERGY      -339.970595367704

DIPOLE MOMENT
-------------
                                X             Y             Z
Electronic contribution:     -0.81860       0.51211      -0.39440
Nuclear contribution   :      0.98473       0.09693      -0.53482
                        -----------------------------------------
Total Dipole Moment    :      0.16613       0.60905      -0.92921
                        -----------------------------------------
Magnitude (a.u.)       :      1.12338
Magnitude (Debye)      :      2.85540

                             ****ORCA TERMINATED NORMALLY****
TOTAL RUN TIME: 0 days 0 hours 0 minutes 5 seconds 976 msec
