                         Program Version 3.0.3 - RELEASE   -
|  1> ! RI PBE def2-SVP def2-SVP/J NBO PAL2
|  2> % maxcore 2000
|  3> % output
|  4>     # printlevel mini
|  5>     print[ P_Basis ] 0
|  6>     print[ P_SCFInfo ] 1
|  7>     print[ P_SCFIterInfo ] 1
|  8>     print[ P_OrbEn ] 0
|  9>     print[ P_Cartesian ] 0
| 10> end
| 11> *xyz 0 1
| 12>  O        4.7413820000    -1.7086900000     0.6782490000
| 13>  N        4.9728750000    -0.3364610000     0.7746160000
| 14>  C        4.2134910000     0.2945040000    -0.0162040000
| 15>  O        4.2139020000     1.6267230000    -0.1164200000
| 16>  C        5.1220040000     2.3155660000     0.7054930000
| 17>  C        6.4728350000     2.6223300000     0.1626070000
| 18>  C        5.4283700000     3.7023490000     0.2829760000
| 19>  H        5.3772330000    -2.0706960000     1.2997960000
| 20>  H        3.4899950000    -0.1811660000    -0.6743720000
| 21>  H        5.0198860000     2.0737080000     1.7571250000
| 22>  H        6.6915120000     2.2586730000    -0.8332360000
| 23>  H        7.3109590000     2.6171810000     0.8476980000
| 24>  H        4.9650750000     4.0437730000    -0.6341050000
| 25>  H        5.5365700000     4.4575170000     1.0508860000
| 26> *
| 27>
| 28>                          ****END OF INPUT****
 Total Charge           Charge          ....    0
 Multiplicity           Mult            ....    1
 Number of Electrons    NEL             ....   54
 Basis Dimension        Dim             ....  133

MULLIKEN ATOMIC CHARGES
-----------------------
   0 O :   -0.192268
   1 N :   -0.115955
   2 C :    0.160622
   3 O :   -0.227561
   4 C :    0.061437
   5 C :   -0.047077
   6 C :   -0.039487
   7 H :    0.172140
   8 H :    0.016111
   9 H :    0.032390
  10 H :    0.042619
  11 H :    0.045279
  12 H :    0.047119
  13 H :    0.044632
Sum of atomic charges:   -0.0000000

LOEWDIN ATOMIC CHARGES
----------------------
   0 O :   -0.065569
   1 N :   -0.077613
   2 C :    0.011891
   3 O :   -0.043745
   4 C :    0.047301
   5 C :   -0.049849
   6 C :   -0.051083
   7 H :    0.072132
   8 H :    0.003695
   9 H :    0.019288
  10 H :    0.034509
  11 H :    0.031910
  12 H :    0.035096
  13 H :    0.032039

  Mayer bond orders larger than 0.1
B(  0-O ,  1-N ) :   0.9683 B(  0-O ,  2-C ) :   0.1019 B(  0-O ,  7-H ) :   0.9784
B(  1-N ,  2-C ) :   1.7619 B(  2-C ,  3-O ) :   1.1511 B(  2-C ,  8-H ) :   0.9495
B(  3-O ,  4-C ) :   0.9902 B(  4-C ,  5-C ) :   1.0233 B(  4-C ,  6-C ) :   0.9925
B(  4-C ,  9-H ) :   0.9371 B(  5-C ,  6-C ) :   1.0320 B(  5-C , 10-H ) :   0.9424
B(  5-C , 11-H ) :   0.9458 B(  6-C , 12-H ) :   0.9436 B(  6-C , 13-H ) :   0.9427

FINAL SINGLE POINT ENERGY      -361.043013169470

DIPOLE MOMENT
-------------
                                X             Y             Z
Electronic contribution:     -2.75534      -4.77985      -0.06102
Nuclear contribution   :      3.08905       4.89663       0.28157
                        -----------------------------------------
Total Dipole Moment    :      0.33370       0.11679       0.22054
                        -----------------------------------------
Magnitude (a.u.)       :      0.41670
Magnitude (Debye)      :      1.05916

                             ****ORCA TERMINATED NORMALLY****
TOTAL RUN TIME: 0 days 0 hours 0 minutes 6 seconds 34 msec
