                         Program Version 3.0.3 - RELEASE   -
|  1> ! RI PBE def2-SVP def2-SVP/J NBO PAL2
|  2> % maxcore 2000
|  3> % output
|  4>     # printlevel mini
|  5>     print[ P_Basis ] 0
|  6>     print[ P_SCFInfo ] 1
|  7>     print[ P_SCFIterInfo ] 1
|  8>     print[ P_OrbEn ] 0
|  9>     print[ P_Cartesian ] 0
| 10> end
| 11> *xyz 0 1
| 12>  O        3.4439360000    -0.6136170000    -1.3820430000
| 13>  N        2.7567670000     0.4846360000    -0.9003210000
| 14>  C        1.5156430000     0.6356870000    -1.3843940000
| 15>  O        1.0753920000    -0.0921430000    -2.2598110000
| 16>  C        3.3040300000     1.0582160000     0.2689930000
| 17>  C        4.5652990000     1.8532670000     0.1415180000
| 18>  C        3.2694450000     2.5499300000     0.4014120000
| 19>  H        2.7881120000    -0.9752810000    -2.0146610000
| 20>  H        0.9684090000     1.4732210000    -0.9311240000
| 21>  H        3.1792380000     0.4632540000     1.1697440000
| 22>  H        4.9887490000     1.9341600000    -0.8507120000
| 23>  H        5.2847020000     1.7708580000     0.9453530000
| 24>  H        2.8354650000     3.1174680000    -0.4109480000
| 25>  H        3.0772030000     2.9493440000     1.3885130000
| 26> *
| 27>
| 28>                          ****END OF INPUT****
 Total Charge           Charge          ....    0
 Multiplicity           Mult            ....    1
 Number of Electrons    NEL             ....   54
 Basis Dimension        Dim             ....  133

MULLIKEN ATOMIC CHARGES
-----------------------
   0 O :   -0.169748
   1 N :   -0.064657
   2 C :    0.174490
   3 O :   -0.274697
   4 C :   -0.006113
   5 C :   -0.012787
   6 C :   -0.047127
   7 H :    0.159044
   8 H :   -0.006443
   9 H :    0.042409
  10 H :    0.053448
  11 H :    0.049988
  12 H :    0.054379
  13 H :    0.047814
Sum of atomic charges:   -0.0000000

LOEWDIN ATOMIC CHARGES
----------------------
   0 O :   -0.063556
   1 N :    0.080547
   2 C :    0.026088
   3 O :   -0.201550
   4 C :    0.003217
   5 C :   -0.035399
   6 C :   -0.035914
   7 H :    0.059395
   8 H :   -0.001243
   9 H :    0.025568
  10 H :    0.038444
  11 H :    0.035338
  12 H :    0.034103
  13 H :    0.034962

  Mayer bond orders larger than 0.1
B(  0-O ,  1-N ) :   0.9813 B(  0-O ,  7-H ) :   0.9192 B(  1-N ,  2-C ) :   1.2148
B(  1-N ,  3-O ) :   0.1145 B(  1-N ,  4-C ) :   0.9927 B(  2-C ,  3-O ) :   1.8968
B(  2-C ,  8-H ) :   0.9316 B(  3-O ,  7-H ) :   0.1283 B(  4-C ,  5-C ) :   0.9895
B(  4-C ,  6-C ) :   0.9867 B(  4-C ,  9-H ) :   0.9362 B(  5-C ,  6-C ) :   1.0406
B(  5-C , 10-H ) :   0.9439 B(  5-C , 11-H ) :   0.9463 B(  6-C , 12-H ) :   0.9475
B(  6-C , 13-H ) :   0.9449

FINAL SINGLE POINT ENERGY      -361.071615437622

DIPOLE MOMENT
-------------
                                X             Y             Z
Electronic contribution:     -2.63187      -4.10572      -3.47440
Nuclear contribution   :      3.08393       4.86709       4.40457
                        -----------------------------------------
Total Dipole Moment    :      0.45207       0.76137       0.93017
                        -----------------------------------------
Magnitude (a.u.)       :      1.28424
Magnitude (Debye)      :      3.26427

                             ****ORCA TERMINATED NORMALLY****
TOTAL RUN TIME: 0 days 0 hours 0 minutes 6 seconds 508 msec
