                         Program Version 3.0.3 - RELEASE   -
|  1> ! RI PBE def2-SVP def2-SVP/J NBO PAL2
|  2> % maxcore 2000
|  3> % output
|  4>     # printlevel mini
|  5>     print[ P_Basis ] 0
|  6>     print[ P_SCFInfo ] 1
|  7>     print[ P_SCFIterInfo ] 1
|  8>     print[ P_OrbEn ] 0
|  9>     print[ P_Cartesian ] 0
| 10> end
| 11> *xyz 0 1
| 12>  O        2.1647640000     3.3332180000     0.7158770000
| 13>  N        3.3684590000     2.6578330000     0.6873320000
| 14>  C        3.7560120000     2.2061770000    -0.5299000000
| 15>  O        3.1471500000     2.5687890000    -1.5283060000
| 16>  C        4.9418140000     1.3261240000    -0.5432440000
| 17>  C        4.9762470000     0.2373690000    -1.5855940000
| 18>  C        5.8560600000     1.4227290000    -1.7361960000
| 19>  H        1.9438900000     3.3518300000    -0.2386700000
| 20>  H        3.5078650000     2.1041120000     1.5173960000
| 21>  H        5.3964850000     1.1190440000     0.4188160000
| 22>  H        4.1109530000     0.1750210000    -2.2328860000
| 23>  H        5.4162500000    -0.7073870000    -1.2934900000
| 24>  H        5.5790610000     2.1559780000    -2.4825160000
| 25>  H        6.9166830000     1.3138430000    -1.5505100000
| 26> *
| 27>
| 28>                          ****END OF INPUT****
 Total Charge           Charge          ....    0
 Multiplicity           Mult            ....    1
 Number of Electrons    NEL             ....   54
 Basis Dimension        Dim             ....  133

MULLIKEN ATOMIC CHARGES
-----------------------
   0 O :   -0.205787
   1 N :    0.015642
   2 C :    0.119404
   3 O :   -0.253585
   4 C :   -0.147586
   5 C :   -0.012367
   6 C :   -0.025275
   7 H :    0.168212
   8 H :    0.133958
   9 H :    0.002620
  10 H :    0.058427
  11 H :    0.038596
  12 H :    0.061265
  13 H :    0.046477
Sum of atomic charges:   -0.0000000

LOEWDIN ATOMIC CHARGES
----------------------
   0 O :   -0.075856
   1 N :    0.095001
   2 C :    0.010129
   3 O :   -0.207149
   4 C :   -0.075251
   5 C :   -0.021758
   6 C :   -0.022353
   7 H :    0.058368
   8 H :    0.076253
   9 H :    0.027045
  10 H :    0.035978
  11 H :    0.030331
  12 H :    0.037245
  13 H :    0.032016

  Mayer bond orders larger than 0.1
B(  0-O ,  1-N ) :   1.0186 B(  0-O ,  7-H ) :   0.9237 B(  1-N ,  2-C ) :   1.2016
B(  1-N ,  8-H ) :   0.9293 B(  2-C ,  3-O ) :   1.9704 B(  2-C ,  4-C ) :   1.0030
B(  3-O ,  7-H ) :   0.1196 B(  4-C ,  5-C ) :   0.9563 B(  4-C ,  6-C ) :   0.9625
B(  4-C ,  9-H ) :   0.9360 B(  5-C ,  6-C ) :   1.0533 B(  5-C , 10-H ) :   0.9451
B(  5-C , 11-H ) :   0.9474 B(  6-C , 12-H ) :   0.9426 B(  6-C , 13-H ) :   0.9468

FINAL SINGLE POINT ENERGY      -361.084464087851

DIPOLE MOMENT
-------------
                                X             Y             Z
Electronic contribution:     -4.16394       3.49380       2.05754
Nuclear contribution   :      4.82341      -4.26972      -1.45462
                        -----------------------------------------
Total Dipole Moment    :      0.65946      -0.77592       0.60292
                        -----------------------------------------
Magnitude (a.u.)       :      1.18341
Magnitude (Debye)      :      3.00799

                             ****ORCA TERMINATED NORMALLY****
TOTAL RUN TIME: 0 days 0 hours 0 minutes 6 seconds 658 msec
