                         Program Version 3.0.3 - RELEASE   -
|  1> ! RI PBE def2-SVP def2-SVP/J NBO PAL2
|  2> % maxcore 2000
|  3> % output
|  4>     # printlevel mini
|  5>     print[ P_Basis ] 0
|  6>     print[ P_SCFInfo ] 1
|  7>     print[ P_SCFIterInfo ] 1
|  8>     print[ P_OrbEn ] 0
|  9>     print[ P_Cartesian ] 0
| 10> end
| 11> *xyz 0 1
| 12>  O        4.9129940000    -0.6768500000     1.2740180000
| 13>  N        5.0720140000    -0.2373510000    -0.0394020000
| 14>  C        6.3002230000    -0.1699550000    -0.3384530000
| 15>  O        6.7288390000     0.2234800000    -1.5364090000
| 16>  C        5.7286110000     0.5703530000    -2.4802650000
| 17>  C        6.3555820000     0.9874530000    -3.7619930000
| 18>  C        7.6535560000     1.0384050000    -4.0161500000
| 19>  H        3.9585180000    -0.6855750000     1.3772850000
| 20>  H        7.1079600000    -0.4229240000     0.3446000000
| 21>  H        5.1050410000     1.3749480000    -2.0707150000
| 22>  H        5.0599370000    -0.2860300000    -2.6333330000
| 23>  H        5.6389060000     1.2671340000    -4.5306230000
| 24>  H        8.3877800000     0.7652410000    -3.2682050000
| 25>  H        8.0184270000     1.3566530000    -4.9850650000
| 26> *
| 27>
| 28>                          ****END OF INPUT****
 Total Charge           Charge          ....    0
 Multiplicity           Mult            ....    1
 Number of Electrons    NEL             ....   54
 Basis Dimension        Dim             ....  133

MULLIKEN ATOMIC CHARGES
-----------------------
   0 O :   -0.190624
   1 N :   -0.125269
   2 C :    0.161529
   3 O :   -0.251580
   4 C :    0.222176
   5 C :   -0.126064
   6 C :   -0.014943
   7 H :    0.173000
   8 H :    0.017958
   9 H :    0.030769
  10 H :    0.031461
  11 H :    0.015662
  12 H :    0.030863
  13 H :    0.025063
Sum of atomic charges:   -0.0000000

LOEWDIN ATOMIC CHARGES
----------------------
   0 O :   -0.064437
   1 N :   -0.083202
   2 C :    0.012544
   3 O :   -0.048514
   4 C :    0.069595
   5 C :   -0.049053
   6 C :   -0.058097
   7 H :    0.073021
   8 H :    0.005771
   9 H :    0.028668
  10 H :    0.028838
  11 H :    0.032744
  12 H :    0.025487
  13 H :    0.026636

  Mayer bond orders larger than 0.1
B(  0-O ,  1-N ) :   0.9699 B(  0-O ,  2-C ) :   0.1007 B(  0-O ,  7-H ) :   0.9785
B(  1-N ,  2-C ) :   1.7525 B(  2-C ,  3-O ) :   1.1690 B(  2-C ,  8-H ) :   0.9500
B(  3-O ,  4-C ) :   0.9650 B(  4-C ,  5-C ) :   1.0389 B(  4-C ,  9-H ) :   0.9236
B(  4-C , 10-H ) :   0.9236 B(  5-C ,  6-C ) :   2.0289 B(  5-C , 11-H ) :   0.9431
B(  6-C , 12-H ) :   0.9409 B(  6-C , 13-H ) :   0.9420

FINAL SINGLE POINT ENERGY      -361.047339753000

DIPOLE MOMENT
-------------
                                X             Y             Z
Electronic contribution:     -1.13888      -1.66442       5.00462
Nuclear contribution   :      0.72776       1.71909      -5.13596
                        -----------------------------------------
Total Dipole Moment    :     -0.41112       0.05467      -0.13134
                        -----------------------------------------
Magnitude (a.u.)       :      0.43504
Magnitude (Debye)      :      1.10577

                             ****ORCA TERMINATED NORMALLY****
TOTAL RUN TIME: 0 days 0 hours 0 minutes 6 seconds 348 msec
