                         Program Version 3.0.3 - RELEASE   -
|  1> ! RI PBE def2-SVP def2-SVP/J NBO PAL2
|  2> % maxcore 2000
|  3> % output
|  4>     # printlevel mini
|  5>     print[ P_Basis ] 0
|  6>     print[ P_SCFInfo ] 1
|  7>     print[ P_SCFIterInfo ] 1
|  8>     print[ P_OrbEn ] 0
|  9>     print[ P_Cartesian ] 0
| 10> end
| 11> *xyz 0 1
| 12>  O        0.6302530000    -1.2619940000    -1.9515490000
| 13>  N        1.9991800000    -1.5060420000    -2.0216640000
| 14>  C        2.6336250000    -0.7210000000    -1.2585250000
| 15>  O        3.9620900000    -0.7518220000    -1.1445250000
| 16>  C        4.6181220000    -1.7331170000    -1.9441250000
| 17>  C        6.0474150000    -1.6496470000    -1.7185880000
| 18>  C        7.2345840000    -1.6098520000    -1.5576990000
| 19>  H        0.2697310000    -1.9087440000    -2.5629330000
| 20>  H        2.1688490000     0.0389020000    -0.6349900000
| 21>  H        4.3798430000    -1.5640830000    -2.9996610000
| 22>  H        4.2404090000    -2.7280960000    -1.6855640000
| 23>  H        8.2880890000    -1.5698960000    -1.4104650000
| 24> *
| 25>
| 26>                          ****END OF INPUT****
 Total Charge           Charge          ....    0
 Multiplicity           Mult            ....    1
 Number of Electrons    NEL             ....   52
 Basis Dimension        Dim             ....  123

MULLIKEN ATOMIC CHARGES
-----------------------
   0 O :   -0.186313
   1 N :   -0.125407
   2 C :    0.162738
   3 O :   -0.252285
   4 C :    0.214664
   5 C :    0.331569
   6 C :   -0.445277
   7 H :    0.174392
   8 H :    0.024327
   9 H :    0.047861
  10 H :    0.044620
  11 H :    0.009110
Sum of atomic charges:   -0.0000000

LOEWDIN ATOMIC CHARGES
----------------------
   0 O :   -0.061789
   1 N :   -0.083136
   2 C :    0.014895
   3 O :   -0.051454
   4 C :    0.066466
   5 C :   -0.032035
   6 C :   -0.053925
   7 H :    0.073965
   8 H :    0.008629
   9 H :    0.040442
  10 H :    0.039951
  11 H :    0.037990

  Mayer bond orders larger than 0.1
B(  0-O ,  1-N ) :   0.9715 B(  0-O ,  2-C ) :   0.1010 B(  0-O ,  7-H ) :   0.9775
B(  1-N ,  2-C ) :   1.7465 B(  2-C ,  3-O ) :   1.1678 B(  2-C ,  8-H ) :   0.9506
B(  3-O ,  4-C ) :   0.9569 B(  4-C ,  5-C ) :   0.9864 B(  4-C ,  9-H ) :   0.9193
B(  4-C , 10-H ) :   0.9184 B(  5-C ,  6-C ) :   2.3942 B(  5-C , 11-H ) :  -0.1003
B(  6-C , 11-H ) :   1.0911

FINAL SINGLE POINT ENERGY      -359.799121162624

DIPOLE MOMENT
-------------
                                X             Y             Z
Electronic contribution:     -0.74332       0.79113       0.62357
Nuclear contribution   :      0.69700      -1.10441      -0.90462
                        -----------------------------------------
Total Dipole Moment    :     -0.04632      -0.31328      -0.28105
                        -----------------------------------------
Magnitude (a.u.)       :      0.42341
Magnitude (Debye)      :      1.07624

                             ****ORCA TERMINATED NORMALLY****
TOTAL RUN TIME: 0 days 0 hours 0 minutes 5 seconds 802 msec
