                         Program Version 3.0.3 - RELEASE   -
|  1> ! RI PBE def2-SVP def2-SVP/J NBO PAL2
|  2> % maxcore 2000
|  3> % output
|  4>     # printlevel mini
|  5>     print[ P_Basis ] 0
|  6>     print[ P_SCFInfo ] 1
|  7>     print[ P_SCFIterInfo ] 1
|  8>     print[ P_OrbEn ] 0
|  9>     print[ P_Cartesian ] 0
| 10> end
| 11> *xyz 0 1
| 12>  O        3.0441270000     0.2860520000    -1.5219990000
| 13>  N        2.4527970000     0.2011910000    -0.2769630000
| 14>  C        3.2241530000     0.1960360000     0.8469020000
| 15>  O        2.7972740000    -0.2046660000     1.9032690000
| 16>  C        4.6224830000     0.7796460000     0.6797020000
| 17>  C        4.6343080000     2.1005980000     0.0770110000
| 18>  C        4.6227650000     3.1943500000    -0.4184500000
| 19>  H        3.0434380000     1.2288310000    -1.7356140000
| 20>  H        1.6184120000    -0.3675170000    -0.2706580000
| 21>  H        5.2105920000     0.0919280000     0.0622950000
| 22>  H        5.0636700000     0.8057540000     1.6768780000
| 23>  H        4.6315810000     4.1724970000    -0.8386810000
| 24> *
| 25>
| 26>                          ****END OF INPUT****
 Total Charge           Charge          ....    0
 Multiplicity           Mult            ....    1
 Number of Electrons    NEL             ....   52
 Basis Dimension        Dim             ....  123

MULLIKEN ATOMIC CHARGES
-----------------------
   0 O :   -0.202544
   1 N :    0.001500
   2 C :    0.009233
   3 O :   -0.179754
   4 C :    0.124243
   5 C :    0.266083
   6 C :   -0.471374
   7 H :    0.191072
   8 H :    0.133992
   9 H :    0.069570
  10 H :    0.052996
  11 H :    0.004983
Sum of atomic charges:   -0.0000000

LOEWDIN ATOMIC CHARGES
----------------------
   0 O :   -0.060528
   1 N :    0.074476
   2 C :    0.020289
   3 O :   -0.164171
   4 C :   -0.070435
   5 C :   -0.027076
   6 C :   -0.090582
   7 H :    0.076868
   8 H :    0.071489
   9 H :    0.067931
  10 H :    0.064219
  11 H :    0.037522

  Mayer bond orders larger than 0.1
B(  0-O ,  1-N ) :   0.9823 B(  0-O ,  7-H ) :   0.9556 B(  1-N ,  2-C ) :   1.1674
B(  1-N ,  3-O ) :   0.1089 B(  1-N ,  8-H ) :   0.9207 B(  2-C ,  3-O ) :   2.1292
B(  2-C ,  4-C ) :   0.9468 B(  4-C ,  5-C ) :   1.0598 B(  4-C ,  9-H ) :   0.8717
B(  4-C , 10-H ) :   0.8804 B(  5-C ,  6-C ) :   2.3481 B(  5-C , 11-H ) :  -0.1110
B(  6-C , 11-H ) :   1.1024

FINAL SINGLE POINT ENERGY      -359.834903910308

DIPOLE MOMENT
-------------
                                X             Y             Z
Electronic contribution:     -1.59272      -1.08809       0.82598
Nuclear contribution   :      1.62325       1.49327      -1.76497
                        -----------------------------------------
Total Dipole Moment    :      0.03053       0.40518      -0.93899
                        -----------------------------------------
Magnitude (a.u.)       :      1.02314
Magnitude (Debye)      :      2.60061

                             ****ORCA TERMINATED NORMALLY****
TOTAL RUN TIME: 0 days 0 hours 0 minutes 5 seconds 729 msec
