                         Program Version 3.0.3 - RELEASE   -
|  1> ! RI PBE def2-SVP def2-SVP/J NBO PAL2
|  2> % maxcore 2000
|  3> % output
|  4>     # printlevel mini
|  5>     print[ P_Basis ] 0
|  6>     print[ P_SCFInfo ] 1
|  7>     print[ P_SCFIterInfo ] 1
|  8>     print[ P_OrbEn ] 0
|  9>     print[ P_Cartesian ] 0
| 10> end
| 11> *xyz 0 1
| 12>  C        1.5100050000    -0.8097870000     0.4548380000
| 13>  C        2.4336030000     0.3651150000    -0.0295230000
| 14>  C        3.1138620000     0.2782060000     1.3234630000
| 15>  C        4.0387630000     0.6771650000     2.2345640000
| 16>  S        3.8578310000    -0.2881620000     3.6493340000
| 17>  C        2.5519690000    -1.2142280000     3.0142800000
| 18>  C        2.2869430000    -0.7737390000     1.7571210000
| 19>  H        1.6062620000    -1.7311850000    -0.1228770000
| 20>  H        0.4517390000    -0.5530630000     0.5333210000
| 21>  H        1.9095910000     1.3014420000    -0.2312540000
| 22>  H        3.0641440000     0.1233200000    -0.8873970000
| 23>  H        4.8005130000     1.4417500000     2.2021680000
| 24>  H        2.1030850000    -1.9897330000     3.6167730000
| 25> *
| 26>
| 27>                          ****END OF INPUT****
 Total Charge           Charge          ....    0
 Multiplicity           Mult            ....    1
 Number of Electrons    NEL             ....   58
 Basis Dimension        Dim             ....  132

MULLIKEN ATOMIC CHARGES
-----------------------
   0 C :    0.089396
   1 C :    0.113652
   2 C :   -0.017270
   3 C :   -0.202674
   4 S :    0.069403
   5 C :   -0.196027
   6 C :   -0.013700
   7 H :    0.027414
   8 H :    0.028759
   9 H :    0.022455
  10 H :    0.024276
  11 H :    0.027687
  12 H :    0.026630
Sum of atomic charges:   -0.0000000

LOEWDIN ATOMIC CHARGES
----------------------
   0 C :   -0.016398
   1 C :   -0.012847
   2 C :   -0.077270
   3 C :   -0.214634
   4 S :    0.436085
   5 C :   -0.213294
   6 C :   -0.077435
   7 H :    0.031862
   8 H :    0.032429
   9 H :    0.031042
  10 H :    0.031660
  11 H :    0.024462
  12 H :    0.024338

  Mayer bond orders larger than 0.1
B(  0-C ,  1-C ) :   1.1748 B(  0-C ,  6-C ) :   1.0895 B(  0-C ,  7-H ) :   0.8902
B(  0-C ,  8-H ) :   0.8880 B(  1-C ,  2-C ) :   1.0863 B(  1-C ,  9-H ) :   0.8897
B(  1-C , 10-H ) :   0.8866 B(  2-C ,  3-C ) :   1.5208 B(  2-C ,  6-C ) :   1.3446
B(  3-C ,  4-S ) :   1.1570 B(  3-C ,  5-C ) :   0.1085 B(  3-C , 11-H ) :   0.9798
B(  4-S ,  5-C ) :   1.1567 B(  5-C ,  6-C ) :   1.5194 B(  5-C , 12-H ) :   0.9800

FINAL SINGLE POINT ENERGY      -629.616138167628

DIPOLE MOMENT
-------------
                                X             Y             Z
Electronic contribution:      3.57935      -0.12528       6.52362
Nuclear contribution   :     -3.76724       0.13148      -6.86459
                        -----------------------------------------
Total Dipole Moment    :     -0.18789       0.00620      -0.34097
                        -----------------------------------------
Magnitude (a.u.)       :      0.38936
Magnitude (Debye)      :      0.98968

                             ****ORCA TERMINATED NORMALLY****
TOTAL RUN TIME: 0 days 0 hours 0 minutes 6 seconds 660 msec
