                         Program Version 3.0.3 - RELEASE   -
|  1> ! RI PBE def2-SVP def2-SVP/J NBO PAL2
|  2> % maxcore 2000
|  3> % output
|  4>     # printlevel mini
|  5>     print[ P_Basis ] 0
|  6>     print[ P_SCFInfo ] 1
|  7>     print[ P_SCFIterInfo ] 1
|  8>     print[ P_OrbEn ] 0
|  9>     print[ P_Cartesian ] 0
| 10> end
| 11> *xyz 0 1
| 12>  C        1.3470290000    -0.6205030000    -0.3004150000
| 13>  C        2.5484700000     0.3688320000    -0.0577030000
| 14>  C        3.2553350000    -0.3842710000    -1.1657580000
| 15>  N        4.3432490000    -0.4844140000    -1.8791290000
| 16>  S        4.0753500000    -1.7500510000    -2.9116280000
| 17>  C        2.4875990000    -2.1466140000    -2.3793850000
| 18>  C        2.1913350000    -1.2659700000    -1.3857610000
| 19>  H        0.4299890000    -0.1413970000    -0.6475520000
| 20>  H        1.1115000000    -1.2629180000     0.5497790000
| 21>  H        3.0121800000     0.2941800000     0.9275250000
| 22>  H        2.3299340000     1.4167940000    -0.2704940000
| 23>  H        1.9330510000    -2.9598770000    -2.8253690000
| 24> *
| 25>
| 26>                          ****END OF INPUT****
 Total Charge           Charge          ....    0
 Multiplicity           Mult            ....    1
 Number of Electrons    NEL             ....   58
 Basis Dimension        Dim             ....  127

MULLIKEN ATOMIC CHARGES
-----------------------
   0 C :    0.114257
   1 C :    0.085384
   2 C :   -0.067862
   3 N :   -0.280398
   4 S :    0.244374
   5 C :   -0.198181
   6 C :   -0.058646
   7 H :    0.027264
   8 H :    0.029610
   9 H :    0.035605
  10 H :    0.037978
  11 H :    0.030615
Sum of atomic charges:   -0.0000000

LOEWDIN ATOMIC CHARGES
----------------------
   0 C :   -0.009195
   1 C :   -0.020545
   2 C :   -0.066251
   3 N :   -0.267182
   4 S :    0.494889
   5 C :   -0.202600
   6 C :   -0.099720
   7 H :    0.033952
   8 H :    0.034433
   9 H :    0.036743
  10 H :    0.037484
  11 H :    0.027993

  Mayer bond orders larger than 0.1
B(  0-C ,  1-C ) :   1.1898 B(  0-C ,  6-C ) :   1.1032 B(  0-C ,  7-H ) :   0.8825
B(  0-C ,  8-H ) :   0.8821 B(  1-C ,  2-C ) :   1.1345 B(  1-C ,  9-H ) :   0.8847
B(  1-C , 10-H ) :   0.8840 B(  2-C ,  3-N ) :   1.5446 B(  2-C ,  6-C ) :   1.3060
B(  3-N ,  4-S ) :   1.1909 B(  3-N ,  5-C ) :   0.1540 B(  4-S ,  5-C ) :   1.1656
B(  5-C ,  6-C ) :   1.5400 B(  5-C , 11-H ) :   0.9651

FINAL SINGLE POINT ENERGY      -645.634580423608

DIPOLE MOMENT
-------------
                                X             Y             Z
Electronic contribution:      5.28655      -2.60717      -5.45041
Nuclear contribution   :     -6.20186       2.35352       5.73575
                        -----------------------------------------
Total Dipole Moment    :     -0.91531      -0.25365       0.28534
                        -----------------------------------------
Magnitude (a.u.)       :      0.99174
Magnitude (Debye)      :      2.52079

                             ****ORCA TERMINATED NORMALLY****
TOTAL RUN TIME: 0 days 0 hours 0 minutes 6 seconds 517 msec
