                         Program Version 3.0.3 - RELEASE   -
|  1> ! RI PBE def2-SVP def2-SVP/J NBO PAL2
|  2> % maxcore 2000
|  3> % output
|  4>     # printlevel mini
|  5>     print[ P_Basis ] 0
|  6>     print[ P_SCFInfo ] 1
|  7>     print[ P_SCFIterInfo ] 1
|  8>     print[ P_OrbEn ] 0
|  9>     print[ P_Cartesian ] 0
| 10> end
| 11> *xyz 0 1
| 12>  C        1.2455540000    -0.6752010000    -0.0785250000
| 13>  C        2.6286780000     0.0911070000    -0.0741930000
| 14>  C        3.2714200000    -1.2616950000    -0.3174850000
| 15>  N        4.3366410000    -1.9969160000    -0.5043890000
| 16>  S        3.7275750000    -3.5202890000    -0.6766600000
| 17>  N        2.1122400000    -3.2293370000    -0.5112930000
| 18>  C        2.0528430000    -1.9368430000    -0.3212710000
| 19>  H        0.5703200000    -0.3914330000    -0.8872560000
| 20>  H        0.7043590000    -0.6433830000     0.8683650000
| 21>  H        2.8841360000     0.5642000000     0.8752460000
| 22>  H        2.7500250000     0.8162910000    -0.8803490000
| 23> *
| 24>
| 25>                          ****END OF INPUT****
 Total Charge           Charge          ....    0
 Multiplicity           Mult            ....    1
 Number of Electrons    NEL             ....   58
 Basis Dimension        Dim             ....  122

MULLIKEN ATOMIC CHARGES
-----------------------
   0 C :    0.117594
   1 C :    0.121255
   2 C :   -0.141565
   3 N :   -0.245708
   4 S :    0.387100
   5 N :   -0.245317
   6 C :   -0.145074
   7 H :    0.039308
   8 H :    0.037990
   9 H :    0.034534
  10 H :    0.039883
Sum of atomic charges:   -0.0000000

LOEWDIN ATOMIC CHARGES
----------------------
   0 C :   -0.015505
   1 C :   -0.014418
   2 C :   -0.088548
   3 N :   -0.250377
   4 S :    0.547780
   5 N :   -0.250046
   6 C :   -0.088921
   7 H :    0.040236
   8 H :    0.040063
   9 H :    0.039371
  10 H :    0.040364

  Mayer bond orders larger than 0.1
B(  0-C ,  1-C ) :   1.2598 B(  0-C ,  6-C ) :   1.1896 B(  0-C ,  7-H ) :   0.8633
B(  0-C ,  8-H ) :   0.8638 B(  1-C ,  2-C ) :   1.1876 B(  1-C ,  9-H ) :   0.8643
B(  1-C , 10-H ) :   0.8645 B(  2-C ,  3-N ) :   1.5806 B(  2-C ,  6-C ) :   1.3083
B(  3-N ,  4-S ) :   1.2075 B(  3-N ,  5-N ) :   0.1516 B(  4-S ,  5-N ) :   1.2077
B(  5-N ,  6-C ) :   1.5800

FINAL SINGLE POINT ENERGY      -661.652790346590

DIPOLE MOMENT
-------------
                                X             Y             Z
Electronic contribution:      4.06060      -7.31973      -1.36078
Nuclear contribution   :     -4.48971       8.09507       1.50507
                        -----------------------------------------
Total Dipole Moment    :     -0.42911       0.77533       0.14429
                        -----------------------------------------
Magnitude (a.u.)       :      0.89783
Magnitude (Debye)      :      2.28210

                             ****ORCA TERMINATED NORMALLY****
TOTAL RUN TIME: 0 days 0 hours 0 minutes 5 seconds 395 msec
