                         Program Version 3.0.3 - RELEASE   -
|  1> ! RI PBE def2-SVP def2-SVP/J NBO PAL2
|  2> % maxcore 2000
|  3> % output
|  4>     # printlevel mini
|  5>     print[ P_Basis ] 0
|  6>     print[ P_SCFInfo ] 1
|  7>     print[ P_SCFIterInfo ] 1
|  8>     print[ P_OrbEn ] 0
|  9>     print[ P_Cartesian ] 0
| 10> end
| 11> *xyz 0 1
| 12>  C        2.2730540000    -0.0955730000     1.0178420000
| 13>  N        1.7284000000     0.2427170000    -0.3423950000
| 14>  C        2.5285690000     1.4195650000    -0.3306440000
| 15>  C        2.9321430000     2.5612520000    -0.9434330000
| 16>  S        3.9077660000     3.4350920000     0.1903660000
| 17>  C        3.7538950000     2.2586710000     1.4449140000
| 18>  C        2.9919010000     1.2407110000     0.9826520000
| 19>  H        2.9327140000    -0.9668520000     1.0283480000
| 20>  H        1.4863780000    -0.2154320000     1.7646980000
| 21>  H        1.8985990000    -0.4320210000    -1.0773170000
| 22>  H        2.7515160000     2.9630930000    -1.9278070000
| 23>  H        4.2488750000     2.4195680000     2.3906660000
| 24> *
| 25>
| 26>                          ****END OF INPUT****
 Total Charge           Charge          ....    0
 Multiplicity           Mult            ....    1
 Number of Electrons    NEL             ....   58
 Basis Dimension        Dim             ....  127

MULLIKEN ATOMIC CHARGES
-----------------------
   0 C :    0.203939
   1 N :   -0.196880
   2 C :    0.153204
   3 C :   -0.213129
   4 S :    0.058083
   5 C :   -0.178328
   6 C :   -0.060009
   7 H :    0.034350
   8 H :    0.037233
   9 H :    0.115737
  10 H :    0.019141
  11 H :    0.026658
Sum of atomic charges:    0.0000000

LOEWDIN ATOMIC CHARGES
----------------------
   0 C :    0.060035
   1 N :   -0.061566
   2 C :   -0.038575
   3 C :   -0.248353
   4 S :    0.423590
   5 C :   -0.204659
   6 C :   -0.098556
   7 H :    0.027387
   8 H :    0.029693
   9 H :    0.062257
  10 H :    0.023826
  11 H :    0.024921

  Mayer bond orders larger than 0.1
B(  0-C ,  1-N ) :   1.0370 B(  0-C ,  6-C ) :   1.0312 B(  0-C ,  7-H ) :   0.9207
B(  0-C ,  8-H ) :   0.9148 B(  1-N ,  2-C ) :   1.0781 B(  1-N ,  9-H ) :   0.9276
B(  2-C ,  3-C ) :   1.4807 B(  2-C ,  4-S ) :   0.1034 B(  2-C ,  6-C ) :   1.2808
B(  3-C ,  4-S ) :   1.0974 B(  3-C ,  5-C ) :   0.1002 B(  3-C , 10-H ) :   0.9963
B(  4-S ,  5-C ) :   1.1548 B(  4-S ,  6-C ) :   0.1080 B(  5-C ,  6-C ) :   1.5358
B(  5-C , 11-H ) :   0.9782

FINAL SINGLE POINT ENERGY      -645.622208155981

DIPOLE MOMENT
-------------
                                X             Y             Z
Electronic contribution:      1.89180       4.52879      -0.80341
Nuclear contribution   :     -1.75168      -5.21320       0.79438
                        -----------------------------------------
Total Dipole Moment    :      0.14012      -0.68441      -0.00903
                        -----------------------------------------
Magnitude (a.u.)       :      0.69867
Magnitude (Debye)      :      1.77587

                             ****ORCA TERMINATED NORMALLY****
TOTAL RUN TIME: 0 days 0 hours 0 minutes 6 seconds 616 msec
