                         Program Version 3.0.3 - RELEASE   -
|  1> ! RI PBE def2-SVP def2-SVP/J NBO PAL2
|  2> % maxcore 2000
|  3> % output
|  4>     # printlevel mini
|  5>     print[ P_Basis ] 0
|  6>     print[ P_SCFInfo ] 1
|  7>     print[ P_SCFIterInfo ] 1
|  8>     print[ P_OrbEn ] 0
|  9>     print[ P_Cartesian ] 0
| 10> end
| 11> *xyz 0 1
| 12>  C        1.2961230000    -0.6327920000     0.2326130000
| 13>  N        2.1773070000     0.5883400000     0.1194420000
| 14>  C        3.0359980000     0.0311340000     1.1109720000
| 15>  C        4.1087690000     0.0621150000     1.9436060000
| 16>  S        3.9299300000    -1.3290660000     2.9625610000
| 17>  N        2.5151750000    -1.9048140000     2.3088300000
| 18>  C        2.2185070000    -1.0738290000     1.3566730000
| 19>  H        1.3087000000    -1.2769080000    -0.6494840000
| 20>  H        0.2697560000    -0.3835080000     0.5045250000
| 21>  H        2.5774270000     0.7648230000    -0.7935540000
| 22>  H        4.9467090000     0.7347060000     2.0466150000
| 23> *
| 24>
| 25>                          ****END OF INPUT****
 Total Charge           Charge          ....    0
 Multiplicity           Mult            ....    1
 Number of Electrons    NEL             ....   58
 Basis Dimension        Dim             ....  122

MULLIKEN ATOMIC CHARGES
-----------------------
   0 C :    0.189423
   1 N :   -0.195759
   2 C :    0.134868
   3 C :   -0.229927
   4 S :    0.227846
   5 N :   -0.273218
   6 C :   -0.100588
   7 H :    0.048019
   8 H :    0.048059
   9 H :    0.120448
  10 H :    0.030830
Sum of atomic charges:   -0.0000000

LOEWDIN ATOMIC CHARGES
----------------------
   0 C :    0.054040
   1 N :   -0.055429
   2 C :   -0.061941
   3 C :   -0.237452
   4 S :    0.480327
   5 N :   -0.255704
   6 C :   -0.084130
   7 H :    0.032502
   8 H :    0.034817
   9 H :    0.064787
  10 H :    0.028183

  Mayer bond orders larger than 0.1
B(  0-C ,  1-N ) :   1.0284 B(  0-C ,  6-C ) :   1.0659 B(  0-C ,  7-H ) :   0.9194
B(  0-C ,  8-H ) :   0.9131 B(  1-N ,  2-C ) :   1.0844 B(  1-N ,  9-H ) :   0.9213
B(  2-C ,  3-C ) :   1.4971 B(  2-C ,  4-S ) :   0.1002 B(  2-C ,  6-C ) :   1.2291
B(  3-C ,  4-S ) :   1.1019 B(  3-C ,  5-N ) :   0.1482 B(  3-C , 10-H ) :   0.9836
B(  4-S ,  5-N ) :   1.1839 B(  5-N ,  6-C ) :   1.5760

FINAL SINGLE POINT ENERGY      -661.638567211594

DIPOLE MOMENT
-------------
                                X             Y             Z
Electronic contribution:      2.70166      -2.04954       4.28630
Nuclear contribution   :     -2.50186       2.56406      -5.22312
                        -----------------------------------------
Total Dipole Moment    :      0.19980       0.51452      -0.93682
                        -----------------------------------------
Magnitude (a.u.)       :      1.08733
Magnitude (Debye)      :      2.76377

                             ****ORCA TERMINATED NORMALLY****
TOTAL RUN TIME: 0 days 0 hours 0 minutes 6 seconds 405 msec
