                         Program Version 3.0.3 - RELEASE   -
|  1> ! RI PBE def2-SVP def2-SVP/J NBO PAL2
|  2> % maxcore 2000
|  3> % output
|  4>     # printlevel mini
|  5>     print[ P_Basis ] 0
|  6>     print[ P_SCFInfo ] 1
|  7>     print[ P_SCFIterInfo ] 1
|  8>     print[ P_OrbEn ] 0
|  9>     print[ P_Cartesian ] 0
| 10> end
| 11> *xyz 0 1
| 12>  C        1.5496250000    -0.6288080000     0.2395440000
| 13>  N        2.4681810000     0.5602830000     0.1749590000
| 14>  C        3.3681880000    -0.1347340000     1.0043170000
| 15>  N        4.5334470000    -0.0434590000     1.5686850000
| 16>  S        4.6463490000    -1.4179600000     2.5077170000
| 17>  C        3.1057420000    -2.0972360000     2.0998560000
| 18>  C        2.5305970000    -1.2365360000     1.2304970000
| 19>  H        1.4656700000    -1.1756390000    -0.7021700000
| 20>  H        0.5596600000    -0.3720070000     0.6180400000
| 21>  H        2.7699740000     0.9061310000    -0.7259340000
| 22>  H        2.7879560000    -3.0436240000     2.5131890000
| 23> *
| 24>
| 25>                          ****END OF INPUT****
 Total Charge           Charge          ....    0
 Multiplicity           Mult            ....    1
 Number of Electrons    NEL             ....   58
 Basis Dimension        Dim             ....  122

MULLIKEN ATOMIC CHARGES
-----------------------
   0 C :    0.219448
   1 N :   -0.220205
   2 C :    0.135794
   3 N :   -0.300795
   4 S :    0.221819
   5 C :   -0.168213
   6 C :   -0.117860
   7 H :    0.041824
   8 H :    0.040811
   9 H :    0.119128
  10 H :    0.028249
Sum of atomic charges:    0.0000000

LOEWDIN ATOMIC CHARGES
----------------------
   0 C :    0.067268
   1 N :   -0.049975
   2 C :   -0.040373
   3 N :   -0.294664
   4 S :    0.471217
   5 C :   -0.190771
   6 C :   -0.120177
   7 H :    0.030745
   8 H :    0.031937
   9 H :    0.066583
  10 H :    0.028210

  Mayer bond orders larger than 0.1
B(  0-C ,  1-N ) :   1.0231 B(  0-C ,  6-C ) :   1.0303 B(  0-C ,  7-H ) :   0.9221
B(  0-C ,  8-H ) :   0.9162 B(  1-N ,  2-C ) :   1.0938 B(  1-N ,  9-H ) :   0.9320
B(  2-C ,  3-N ) :   1.5381 B(  2-C ,  6-C ) :   1.1918 B(  3-N ,  4-S ) :   1.1385
B(  3-N ,  5-C ) :   0.1376 B(  4-S ,  5-C ) :   1.1451 B(  4-S ,  6-C ) :   0.1092
B(  5-C ,  6-C ) :   1.5850 B(  5-C , 10-H ) :   0.9675

FINAL SINGLE POINT ENERGY      -661.644887773605

DIPOLE MOMENT
-------------
                                X             Y             Z
Electronic contribution:      4.79876      -0.23560       3.18854
Nuclear contribution   :     -5.68418      -0.37804      -3.84264
                        -----------------------------------------
Total Dipole Moment    :     -0.88543      -0.61365      -0.65411
                        -----------------------------------------
Magnitude (a.u.)       :      1.26032
Magnitude (Debye)      :      3.20347

                             ****ORCA TERMINATED NORMALLY****
TOTAL RUN TIME: 0 days 0 hours 0 minutes 6 seconds 218 msec
