                         Program Version 3.0.3 - RELEASE   -
|  1> ! RI PBE def2-SVP def2-SVP/J NBO PAL2
|  2> % maxcore 2000
|  3> % output
|  4>     # printlevel mini
|  5>     print[ P_Basis ] 0
|  6>     print[ P_SCFInfo ] 1
|  7>     print[ P_SCFIterInfo ] 1
|  8>     print[ P_OrbEn ] 0
|  9>     print[ P_Cartesian ] 0
| 10> end
| 11> *xyz 0 1
| 12>  C        1.6733720000    -0.1213390000    -0.7570340000
| 13>  O        1.4609690000     0.4985160000     0.5649800000
| 14>  C        2.3077020000     1.5151000000     0.1706900000
| 15>  C        2.8985400000     2.6784250000     0.5302080000
| 16>  S        3.8556630000     3.1736900000    -0.8295990000
| 17>  C        3.4307850000     1.8179920000    -1.8139390000
| 18>  C        2.5879860000     1.0303340000    -1.1080060000
| 19>  H        0.7313190000    -0.1863880000    -1.3030330000
| 20>  H        2.1367030000    -1.1027440000    -0.6475830000
| 21>  H        2.8655550000     3.2711730000     1.4296160000
| 22>  H        3.8401160000     1.7339510000    -2.8091090000
| 23> *
| 24>
| 25>                          ****END OF INPUT****
 Total Charge           Charge          ....    0
 Multiplicity           Mult            ....    1
 Number of Electrons    NEL             ....   58
 Basis Dimension        Dim             ....  122

MULLIKEN ATOMIC CHARGES
-----------------------
   0 C :    0.252993
   1 O :   -0.284832
   2 C :    0.220681
   3 C :   -0.192765
   4 S :    0.062842
   5 C :   -0.168120
   6 C :   -0.059810
   7 H :    0.051917
   8 H :    0.051331
   9 H :    0.031679
  10 H :    0.034084
Sum of atomic charges:   -0.0000000

LOEWDIN ATOMIC CHARGES
----------------------
   0 C :    0.125998
   1 O :   -0.114482
   2 C :   -0.002805
   3 C :   -0.248831
   4 S :    0.430712
   5 C :   -0.196109
   6 C :   -0.116181
   7 H :    0.032709
   8 H :    0.032441
   9 H :    0.029616
  10 H :    0.026932

  Mayer bond orders larger than 0.1
B(  0-C ,  1-O ) :   0.9907 B(  0-C ,  6-C ) :   1.0537 B(  0-C ,  7-H ) :   0.9272
B(  0-C ,  8-H ) :   0.9291 B(  1-O ,  2-C ) :   1.0845 B(  2-C ,  3-C ) :   1.4858
B(  2-C ,  4-S ) :   0.1091 B(  2-C ,  6-C ) :   1.2917 B(  3-C ,  4-S ) :   1.0884
B(  3-C ,  5-C ) :   0.1038 B(  3-C ,  9-H ) :   0.9958 B(  4-S ,  5-C ) :   1.1584
B(  4-S ,  6-C ) :   0.1104 B(  5-C ,  6-C ) :   1.5119 B(  5-C , 10-H ) :   0.9782

FINAL SINGLE POINT ENERGY      -665.456653580710

DIPOLE MOMENT
-------------
                                X             Y             Z
Electronic contribution:      1.51963       2.83800       0.71085
Nuclear contribution   :     -1.49447      -3.15193      -1.20221
                        -----------------------------------------
Total Dipole Moment    :      0.02515      -0.31393      -0.49136
                        -----------------------------------------
Magnitude (a.u.)       :      0.58362
Magnitude (Debye)      :      1.48345

                             ****ORCA TERMINATED NORMALLY****
TOTAL RUN TIME: 0 days 0 hours 0 minutes 6 seconds 217 msec
