                         Program Version 3.0.3 - RELEASE   -
|  1> ! RI PBE def2-SVP def2-SVP/J NBO PAL2
|  2> % maxcore 2000
|  3> % output
|  4>     # printlevel mini
|  5>     print[ P_Basis ] 0
|  6>     print[ P_SCFInfo ] 1
|  7>     print[ P_SCFIterInfo ] 1
|  8>     print[ P_OrbEn ] 0
|  9>     print[ P_Cartesian ] 0
| 10> end
| 11> *xyz 0 1
| 12>  C        1.3077070000    -0.5853250000    -0.0991010000
| 13>  O        2.4304390000     0.3761570000     0.0134840000
| 14>  C        3.3072700000    -0.6862800000    -0.0936300000
| 15>  C        4.5759190000    -1.1593030000    -0.1342040000
| 16>  S        4.3802090000    -2.8762310000    -0.3201490000
| 17>  N        2.7168410000    -2.9197970000    -0.3387600000
| 18>  C        2.3486120000    -1.6823930000    -0.2085940000
| 19>  H        0.7137680000    -0.3764360000    -0.9890990000
| 20>  H        0.6990890000    -0.5694180000     0.8052370000
| 21>  H        5.5481370000    -0.6955750000    -0.0763950000
| 22> *
| 23>
| 24>                          ****END OF INPUT****
 Total Charge           Charge          ....    0
 Multiplicity           Mult            ....    1
 Number of Electrons    NEL             ....   58
 Basis Dimension        Dim             ....  117

MULLIKEN ATOMIC CHARGES
-----------------------
   0 C :    0.235011
   1 O :   -0.281195
   2 C :    0.194210
   3 C :   -0.188868
   4 S :    0.237092
   5 N :   -0.260006
   6 C :   -0.102042
   7 H :    0.064165
   8 H :    0.063778
   9 H :    0.037854
Sum of atomic charges:   -0.0000000

LOEWDIN ATOMIC CHARGES
----------------------
   0 C :    0.120943
   1 O :   -0.110010
   2 C :   -0.025370
   3 C :   -0.234204
   4 S :    0.489048
   5 N :   -0.248680
   6 C :   -0.099921
   7 H :    0.037640
   8 H :    0.037574
   9 H :    0.032980

  Mayer bond orders larger than 0.1
B(  0-C ,  1-O ) :   0.9914 B(  0-C ,  6-C ) :   1.0970 B(  0-C ,  7-H ) :   0.9259
B(  0-C ,  8-H ) :   0.9265 B(  1-O ,  2-C ) :   1.0933 B(  2-C ,  3-C ) :   1.4846
B(  2-C ,  4-S ) :   0.1031 B(  2-C ,  6-C ) :   1.2538 B(  3-C ,  4-S ) :   1.0923
B(  3-C ,  5-N ) :   0.1494 B(  3-C ,  9-H ) :   0.9870 B(  4-S ,  5-N ) :   1.1854
B(  5-N ,  6-C ) :   1.5578

FINAL SINGLE POINT ENERGY      -681.470647447808

DIPOLE MOMENT
-------------
                                X             Y             Z
Electronic contribution:      2.49254      -2.53281      -0.25108
Nuclear contribution   :     -2.54782       2.95118       0.29636
                        -----------------------------------------
Total Dipole Moment    :     -0.05528       0.41837       0.04528
                        -----------------------------------------
Magnitude (a.u.)       :      0.42443
Magnitude (Debye)      :      1.07882

                             ****ORCA TERMINATED NORMALLY****
TOTAL RUN TIME: 0 days 0 hours 0 minutes 5 seconds 652 msec
