                         Program Version 3.0.3 - RELEASE   -
|  1> ! RI PBE def2-SVP def2-SVP/J NBO PAL2
|  2> % maxcore 2000
|  3> % output
|  4>     # printlevel mini
|  5>     print[ P_Basis ] 0
|  6>     print[ P_SCFInfo ] 1
|  7>     print[ P_SCFIterInfo ] 1
|  8>     print[ P_OrbEn ] 0
|  9>     print[ P_Cartesian ] 0
| 10> end
| 11> *xyz 0 1
| 12>  C        1.6193900000    -0.5599010000     0.5975020000
| 13>  O        2.1440940000     0.5489460000    -0.2350270000
| 14>  C        3.0187250000     0.8231490000     0.7827670000
| 15>  N        3.9630160000     1.6591720000     1.0564440000
| 16>  S        4.4635900000     1.1992530000     2.5815670000
| 17>  C        3.3624680000    -0.1237560000     2.7945130000
| 18>  C        2.6210220000    -0.1820920000     1.6656140000
| 19>  H        1.7743310000    -1.5139090000     0.0937430000
| 20>  H        0.5676090000    -0.3913770000     0.8283030000
| 21>  H        3.3677460000    -0.7113750000     3.7011750000
| 22> *
| 23>
| 24>                          ****END OF INPUT****
 Total Charge           Charge          ....    0
 Multiplicity           Mult            ....    1
 Number of Electrons    NEL             ....   58
 Basis Dimension        Dim             ....  117

MULLIKEN ATOMIC CHARGES
-----------------------
   0 C :    0.253867
   1 O :   -0.279784
   2 C :    0.201650
   3 N :   -0.288582
   4 S :    0.234578
   5 C :   -0.176594
   6 C :   -0.106159
   7 H :    0.058826
   8 H :    0.061409
   9 H :    0.040789
Sum of atomic charges:   -0.0000000

LOEWDIN ATOMIC CHARGES
----------------------
   0 C :    0.129667
   1 O :   -0.100761
   2 C :   -0.015227
   3 N :   -0.281912
   4 S :    0.484813
   5 C :   -0.183914
   6 C :   -0.136572
   7 H :    0.036383
   8 H :    0.036733
   9 H :    0.030790

  Mayer bond orders larger than 0.1
B(  0-C ,  1-O ) :   0.9867 B(  0-C ,  6-C ) :   1.0534 B(  0-C ,  7-H ) :   0.9264
B(  0-C ,  8-H ) :   0.9290 B(  1-O ,  2-C ) :   1.0931 B(  2-C ,  3-N ) :   1.5722
B(  2-C ,  6-C ) :   1.2087 B(  3-N ,  4-S ) :   1.1327 B(  3-N ,  5-C ) :   0.1426
B(  4-S ,  5-C ) :   1.1530 B(  4-S ,  6-C ) :   0.1101 B(  5-C ,  6-C ) :   1.5594
B(  5-C ,  9-H ) :   0.9701

FINAL SINGLE POINT ENERGY      -681.479476174022

DIPOLE MOMENT
-------------
                                X             Y             Z
Electronic contribution:      3.19759       3.03645       0.61848
Nuclear contribution   :     -3.80242      -4.14201       0.08321
                        -----------------------------------------
Total Dipole Moment    :     -0.60484      -1.10556       0.70169
                        -----------------------------------------
Magnitude (a.u.)       :      1.44238
Magnitude (Debye)      :      3.66624

                             ****ORCA TERMINATED NORMALLY****
TOTAL RUN TIME: 0 days 0 hours 0 minutes 5 seconds 467 msec
