                         Program Version 3.0.3 - RELEASE   -
|  1> ! RI PBE def2-SVP def2-SVP/J NBO PAL2
|  2> % maxcore 2000
|  3> % output
|  4>     # printlevel mini
|  5>     print[ P_Basis ] 0
|  6>     print[ P_SCFInfo ] 1
|  7>     print[ P_SCFIterInfo ] 1
|  8>     print[ P_OrbEn ] 0
|  9>     print[ P_Cartesian ] 0
| 10> end
| 11> *xyz 0 1
| 12>  C        0.7207070000     0.1078040000    -0.0242180000
| 13>  C        2.2060460000     0.0011150000    -0.0176700000
| 14>  C        3.1288080000     1.0031630000    -0.0153770000
| 15>  C        4.4697760000     0.5369130000    -0.0088580000
| 16>  C        4.5718260000    -0.8214590000    -0.0061650000
| 17>  C        5.8029540000    -1.6592760000     0.0004950000
| 18>  S        3.0007820000    -1.5265290000    -0.0117090000
| 19>  H        0.4287270000     1.1592750000    -0.0272110000
| 20>  H        0.2736600000    -0.3620750000     0.8561470000
| 21>  H        0.2812220000    -0.3649920000    -0.9068260000
| 22>  H        2.8528130000     2.0507150000    -0.0183010000
| 23>  H        5.3361310000     1.1872750000    -0.0062270000
| 24>  H        6.6842780000    -1.0157580000     0.0032200000
| 25>  H        5.8619730000    -2.3053880000    -0.8796960000
| 26>  H        5.8544060000    -2.3024920000     0.8832770000
| 27> *
| 28>
| 29>                          ****END OF INPUT****
 Total Charge           Charge          ....    0
 Multiplicity           Mult            ....    1
 Number of Electrons    NEL             ....   60
 Basis Dimension        Dim             ....  142

MULLIKEN ATOMIC CHARGES
-----------------------
   0 C :    0.095485
   1 C :   -0.234103
   2 C :    0.021466
   3 C :    0.031348
   4 C :   -0.235799
   5 C :    0.087423
   6 S :    0.092287
   7 H :    0.022010
   8 H :    0.037337
   9 H :    0.037213
  10 H :   -0.027074
  11 H :   -0.029034
  12 H :    0.022040
  13 H :    0.039727
  14 H :    0.039675
Sum of atomic charges:   -0.0000000

LOEWDIN ATOMIC CHARGES
----------------------
   0 C :   -0.067366
   1 C :   -0.197753
   2 C :   -0.082749
   3 C :   -0.081194
   4 C :   -0.198471
   5 C :   -0.069010
   6 S :    0.414145
   7 H :    0.039446
   8 H :    0.037609
   9 H :    0.037586
  10 H :    0.026016
  11 H :    0.025985
  12 H :    0.039827
  13 H :    0.037966
  14 H :    0.037962

  Mayer bond orders larger than 0.1
B(  0-C ,  1-C ) :   1.0913 B(  0-C ,  7-H ) :   0.9503 B(  0-C ,  8-H ) :   0.9450
B(  0-C ,  9-H ) :   0.9449 B(  1-C ,  2-C ) :   1.5661 B(  1-C ,  4-C ) :   0.1007
B(  1-C ,  6-S ) :   1.1397 B(  2-C ,  3-C ) :   1.2298 B(  2-C , 10-H ) :   0.9888
B(  3-C ,  4-C ) :   1.5714 B(  3-C , 11-H ) :   0.9868 B(  4-C ,  5-C ) :   1.0905
B(  4-C ,  6-S ) :   1.1391 B(  5-C , 12-H ) :   0.9489 B(  5-C , 13-H ) :   0.9458
B(  5-C , 14-H ) :   0.9458

FINAL SINGLE POINT ENERGY      -630.865236427046

DIPOLE MOMENT
-------------
                                X             Y             Z
Electronic contribution:     -0.76767      -2.20419       0.00048
Nuclear contribution   :      0.78925       2.26994      -0.00046
                        -----------------------------------------
Total Dipole Moment    :      0.02158       0.06574       0.00002
                        -----------------------------------------
Magnitude (a.u.)       :      0.06919
Magnitude (Debye)      :      0.17588

                             ****ORCA TERMINATED NORMALLY****
TOTAL RUN TIME: 0 days 0 hours 0 minutes 6 seconds 433 msec
