                         Program Version 3.0.3 - RELEASE   -
|  1> ! RI PBE def2-SVP def2-SVP/J NBO PAL2
|  2> % maxcore 2000
|  3> % output
|  4>     # printlevel mini
|  5>     print[ P_Basis ] 0
|  6>     print[ P_SCFInfo ] 1
|  7>     print[ P_SCFIterInfo ] 1
|  8>     print[ P_OrbEn ] 0
|  9>     print[ P_Cartesian ] 0
| 10> end
| 11> *xyz 0 1
| 12>  C        0.9123760000     0.0810520000     0.0575840000
| 13>  C        2.3976070000    -0.0047720000     0.0636770000
| 14>  C        3.3180760000     0.9928180000     0.0658220000
| 15>  C        4.6701060000     0.5513720000     0.0718890000
| 16>  C        4.7730780000    -0.8109750000     0.0743870000
| 17>  N        5.8986540000    -1.5871940000     0.0799250000
| 18>  S        3.2053190000    -1.5409550000     0.0692690000
| 19>  H        0.6125760000     1.1307180000     0.0548630000
| 20>  H        0.4656450000    -0.3900860000     0.9385010000
| 21>  H        0.4727320000    -0.3926370000    -0.8255280000
| 22>  H        3.0347700000     2.0388650000     0.0630820000
| 23>  H        5.5273920000     1.2121170000     0.0742770000
| 24>  H        6.8023510000    -1.1570940000     0.0839370000
| 25>  H        5.8472190000    -2.5857190000     0.0823350000
| 26> *
| 27>
| 28>                          ****END OF INPUT****
 Total Charge           Charge          ....    0
 Multiplicity           Mult            ....    1
 Number of Electrons    NEL             ....   60
 Basis Dimension        Dim             ....  137

MULLIKEN ATOMIC CHARGES
-----------------------
   0 C :    0.092134
   1 C :   -0.230310
   2 C :    0.021131
   3 C :   -0.001909
   4 C :   -0.103948
   5 N :   -0.052214
   6 S :    0.051361
   7 H :    0.018911
   8 H :    0.030464
   9 H :    0.030356
  10 H :   -0.032976
  11 H :   -0.045853
  12 H :    0.111094
  13 H :    0.111759
Sum of atomic charges:   -0.0000000

LOEWDIN ATOMIC CHARGES
----------------------
   0 C :   -0.069137
   1 C :   -0.217384
   2 C :   -0.075239
   3 C :   -0.145419
   4 C :   -0.143168
   5 N :   -0.015902
   6 S :    0.371810
   7 H :    0.039109
   8 H :    0.032739
   9 H :    0.032720
  10 H :    0.024789
  11 H :    0.020364
  12 H :    0.075327
  13 H :    0.069392

  Mayer bond orders larger than 0.1
B(  0-C ,  1-C ) :   1.1022 B(  0-C ,  7-H ) :   0.9494 B(  0-C ,  8-H ) :   0.9443
B(  0-C ,  9-H ) :   0.9442 B(  1-C ,  2-C ) :   1.5976 B(  1-C ,  6-S ) :   1.0729
B(  2-C ,  3-C ) :   1.2157 B(  2-C , 10-H ) :   0.9852 B(  3-C ,  4-C ) :   1.4678
B(  3-C , 11-H ) :   0.9941 B(  4-C ,  5-N ) :   1.2348 B(  4-C ,  6-S ) :   1.1166
B(  5-N , 12-H ) :   0.9532 B(  5-N , 13-H ) :   0.9474

FINAL SINGLE POINT ENERGY      -646.881321815992

DIPOLE MOMENT
-------------
                                X             Y             Z
Electronic contribution:      2.54112      -3.81592       0.01571
Nuclear contribution   :     -1.91105       3.48897      -0.01136
                        -----------------------------------------
Total Dipole Moment    :      0.63007      -0.32695       0.00435
                        -----------------------------------------
Magnitude (a.u.)       :      0.70986
Magnitude (Debye)      :      1.80433

                             ****ORCA TERMINATED NORMALLY****
TOTAL RUN TIME: 0 days 0 hours 0 minutes 7 seconds 30 msec
