                         Program Version 3.0.3 - RELEASE   -
|  1> ! RI PBE def2-SVP def2-SVP/J NBO PAL2
|  2> % maxcore 2000
|  3> % output
|  4>     # printlevel mini
|  5>     print[ P_Basis ] 0
|  6>     print[ P_SCFInfo ] 1
|  7>     print[ P_SCFIterInfo ] 1
|  8>     print[ P_OrbEn ] 0
|  9>     print[ P_Cartesian ] 0
| 10> end
| 11> *xyz 0 1
| 12>  C        0.9713410000     0.0574780000     0.0241160000
| 13>  C        2.4579800000    -0.0157840000     0.0301940000
| 14>  C        3.3598170000     1.0004320000     0.0322090000
| 15>  C        4.7183390000     0.5748360000     0.0382890000
| 16>  C        4.8205170000    -0.7810530000     0.0408130000
| 17>  O        5.9107870000    -1.5764550000     0.0463940000
| 18>  S        3.2756260000    -1.5418090000     0.0358510000
| 19>  H        0.6611170000     1.1039300000     0.0213560000
| 20>  H        0.5317900000    -0.4191210000     0.9050380000
| 21>  H        0.5388770000    -0.4216730000    -0.8589270000
| 22>  H        3.0612940000     2.0417800000     0.0293910000
| 23>  H        5.5709740000     1.2425910000     0.0406400000
| 24>  H        6.6960530000    -1.0209620000     0.0488470000
| 25> *
| 26>
| 27>                          ****END OF INPUT****
 Total Charge           Charge          ....    0
 Multiplicity           Mult            ....    1
 Number of Electrons    NEL             ....   60
 Basis Dimension        Dim             ....  132

MULLIKEN ATOMIC CHARGES
-----------------------
   0 C :    0.089246
   1 C :   -0.241105
   2 C :    0.027045
   3 C :   -0.018867
   4 C :   -0.003680
   5 O :   -0.149355
   6 S :    0.083957
   7 H :    0.021791
   8 H :    0.036083
   9 H :    0.035983
  10 H :   -0.025486
  11 H :   -0.032382
  12 H :    0.176772
Sum of atomic charges:   -0.0000000

LOEWDIN ATOMIC CHARGES
----------------------
   0 C :   -0.068127
   1 C :   -0.206751
   2 C :   -0.075461
   3 C :   -0.145817
   4 C :   -0.132427
   5 O :   -0.034025
   6 S :    0.404389
   7 H :    0.039971
   8 H :    0.035957
   9 H :    0.035939
  10 H :    0.026361
  11 H :    0.024035
  12 H :    0.095956

  Mayer bond orders larger than 0.1
B(  0-C ,  1-C ) :   1.1010 B(  0-C ,  7-H ) :   0.9508 B(  0-C ,  8-H ) :   0.9451
B(  0-C ,  9-H ) :   0.9451 B(  1-C ,  2-C ) :   1.5941 B(  1-C ,  6-S ) :   1.1013
B(  2-C ,  3-C ) :   1.2083 B(  2-C , 10-H ) :   0.9879 B(  3-C ,  4-C ) :   1.4692
B(  3-C , 11-H ) :   0.9885 B(  4-C ,  5-O ) :   1.2081 B(  4-C ,  6-S ) :   1.1315
B(  5-O , 12-H ) :   0.9622

FINAL SINGLE POINT ENERGY      -666.719582555505

DIPOLE MOMENT
-------------
                                X             Y             Z
Electronic contribution:      4.61379      -4.95886       0.02623
Nuclear contribution   :     -4.30970       5.44426      -0.02564
                        -----------------------------------------
Total Dipole Moment    :      0.30408       0.48539       0.00059
                        -----------------------------------------
Magnitude (a.u.)       :      0.57278
Magnitude (Debye)      :      1.45588

                             ****ORCA TERMINATED NORMALLY****
TOTAL RUN TIME: 0 days 0 hours 0 minutes 7 seconds 84 msec
