                         Program Version 3.0.3 - RELEASE   -
|  1> ! RI PBE def2-SVP def2-SVP/J NBO PAL2
|  2> % maxcore 2000
|  3> % output
|  4>     # printlevel mini
|  5>     print[ P_Basis ] 0
|  6>     print[ P_SCFInfo ] 1
|  7>     print[ P_SCFIterInfo ] 1
|  8>     print[ P_OrbEn ] 0
|  9>     print[ P_Cartesian ] 0
| 10> end
| 11> *xyz 0 1
| 12>  C        0.8168520000     0.0588470000    -0.0507110000
| 13>  C        2.3054280000     0.0174240000    -0.0440860000
| 14>  C        3.1916740000     1.0595170000    -0.0398150000
| 15>  C        4.5354080000     0.6051080000    -0.0339700000
| 16>  C        5.7385850000     1.4905730000    -0.0283370000
| 17>  N        4.6879310000    -0.7013030000    -0.0336790000
| 18>  S        3.2175880000    -1.4230050000    -0.0404540000
| 19>  H        0.4690840000     1.0925220000    -0.0519750000
| 20>  H        0.3987140000    -0.4375890000     0.8283020000
| 21>  H        0.4065670000    -0.4371040000    -0.9336890000
| 22>  H        2.8990450000     2.1017440000    -0.0408030000
| 23>  H        5.4523250000     2.5426190000    -0.0293640000
| 24>  H        6.3598070000     1.2985440000    -0.9056380000
| 25>  H        6.3518840000     1.2981120000     0.8544290000
| 26> *
| 27>
| 28>                          ****END OF INPUT****
 Total Charge           Charge          ....    0
 Multiplicity           Mult            ....    1
 Number of Electrons    NEL             ....   60
 Basis Dimension        Dim             ....  137

MULLIKEN ATOMIC CHARGES
-----------------------
   0 C :    0.092423
   1 C :   -0.241520
   2 C :   -0.003174
   3 C :   -0.098313
   4 C :    0.104344
   5 N :   -0.305844
   6 S :    0.262365
   7 H :    0.027189
   8 H :    0.045646
   9 H :    0.045534
  10 H :   -0.024809
  11 H :    0.008162
  12 H :    0.044071
  13 H :    0.043925
Sum of atomic charges:   -0.0000000

LOEWDIN ATOMIC CHARGES
----------------------
   0 C :   -0.065870
   1 C :   -0.197050
   2 C :   -0.104176
   3 C :   -0.051448
   4 C :   -0.061720
   5 N :   -0.285102
   6 S :    0.488412
   7 H :    0.041114
   8 H :    0.043026
   9 H :    0.043006
  10 H :    0.028260
  11 H :    0.031792
  12 H :    0.044886
  13 H :    0.044871

  Mayer bond orders larger than 0.1
B(  0-C ,  1-C ) :   1.0786 B(  0-C ,  7-H ) :   0.9490 B(  0-C ,  8-H ) :   0.9450
B(  0-C ,  9-H ) :   0.9450 B(  1-C ,  2-C ) :   1.5234 B(  1-C ,  5-N ) :   0.1481
B(  1-C ,  6-S ) :   1.1764 B(  2-C ,  3-C ) :   1.2324 B(  2-C , 10-H ) :   0.9861
B(  3-C ,  4-C ) :   1.0984 B(  3-C ,  5-N ) :   1.5770 B(  4-C , 11-H ) :   0.9458
B(  4-C , 12-H ) :   0.9413 B(  4-C , 13-H ) :   0.9412 B(  5-N ,  6-S ) :   1.1830

FINAL SINGLE POINT ENERGY      -646.886212367406

DIPOLE MOMENT
-------------
                                X             Y             Z
Electronic contribution:      0.92503      -6.92901       0.00203
Nuclear contribution   :     -1.69330       7.56195      -0.00526
                        -----------------------------------------
Total Dipole Moment    :     -0.76828       0.63294      -0.00323
                        -----------------------------------------
Magnitude (a.u.)       :      0.99542
Magnitude (Debye)      :      2.53016

                             ****ORCA TERMINATED NORMALLY****
TOTAL RUN TIME: 0 days 0 hours 0 minutes 6 seconds 366 msec
