                         Program Version 3.0.3 - RELEASE   -
|  1> ! RI PBE def2-SVP def2-SVP/J NBO PAL2
|  2> % maxcore 2000
|  3> % output
|  4>     # printlevel mini
|  5>     print[ P_Basis ] 0
|  6>     print[ P_SCFInfo ] 1
|  7>     print[ P_SCFIterInfo ] 1
|  8>     print[ P_OrbEn ] 0
|  9>     print[ P_Cartesian ] 0
| 10> end
| 11> *xyz 0 1
| 12>  C        0.8300920000     0.0314130000    -0.0254840000
| 13>  C        2.3164210000    -0.0686410000    -0.0192030000
| 14>  C        3.2200620000     0.9513060000    -0.0152590000
| 15>  C        4.5792250000     0.5155640000    -0.0095400000
| 16>  N        5.6335440000     1.3934710000    -0.0050990000
| 17>  C        4.6701890000    -0.8504550000    -0.0092970000
| 18>  S        3.1183600000    -1.5822060000    -0.0159870000
| 19>  H        0.5290850000     1.0802190000    -0.0267440000
| 20>  H        0.3880680000    -0.4440580000     0.8540740000
| 21>  H        0.3955210000    -0.4440350000    -0.9087600000
| 22>  H        2.9275310000     1.9952690000    -0.0164050000
| 23>  H        5.4743870000     2.3802620000    -0.0046520000
| 24>  H        6.5785150000     1.0666260000    -0.0002450000
| 25>  H        5.5615700000    -1.4585360000    -0.0056000000
| 26> *
| 27>
| 28>                          ****END OF INPUT****
 Total Charge           Charge          ....    0
 Multiplicity           Mult            ....    1
 Number of Electrons    NEL             ....   60
 Basis Dimension        Dim             ....  137

MULLIKEN ATOMIC CHARGES
-----------------------
   0 C :    0.091773
   1 C :   -0.247576
   2 C :    0.024557
   3 C :    0.063231
   4 N :   -0.060911
   5 C :   -0.181360
   6 S :    0.069312
   7 H :    0.018706
   8 H :    0.037766
   9 H :    0.037631
  10 H :   -0.045392
  11 H :    0.101055
  12 H :    0.101037
  13 H :   -0.009829
Sum of atomic charges:   -0.0000000

LOEWDIN ATOMIC CHARGES
----------------------
   0 C :   -0.067818
   1 C :   -0.194603
   2 C :   -0.105137
   3 C :   -0.027575
   4 N :   -0.015632
   5 C :   -0.281680
   6 S :    0.409166
   7 H :    0.037948
   8 H :    0.037768
   9 H :    0.037743
  10 H :    0.020341
  11 H :    0.067359
  12 H :    0.067608
  13 H :    0.014512

  Mayer bond orders larger than 0.1
B(  0-C ,  1-C ) :   1.0903 B(  0-C ,  7-H ) :   0.9502 B(  0-C ,  8-H ) :   0.9456
B(  0-C ,  9-H ) :   0.9456 B(  1-C ,  2-C ) :   1.5315 B(  1-C ,  6-S ) :   1.1887
B(  2-C ,  3-C ) :   1.2118 B(  2-C , 10-H ) :   0.9893 B(  3-C ,  4-N ) :   1.2395
B(  3-C ,  5-C ) :   1.4776 B(  4-N , 11-H ) :   0.9499 B(  4-N , 12-H ) :   0.9549
B(  5-C ,  6-S ) :   1.0865 B(  5-C , 13-H ) :   0.9743

FINAL SINGLE POINT ENERGY      -646.882702103375

DIPOLE MOMENT
-------------
                                X             Y             Z
Electronic contribution:      2.37175      -4.39535       0.00925
Nuclear contribution   :     -2.01689       5.12983      -0.00641
                        -----------------------------------------
Total Dipole Moment    :      0.35486       0.73448       0.00284
                        -----------------------------------------
Magnitude (a.u.)       :      0.81571
Magnitude (Debye)      :      2.07338

                             ****ORCA TERMINATED NORMALLY****
TOTAL RUN TIME: 0 days 0 hours 0 minutes 5 seconds 925 msec
