                         Program Version 3.0.3 - RELEASE   -
|  1> ! RI PBE def2-SVP def2-SVP/J NBO PAL2
|  2> % maxcore 2000
|  3> % output
|  4>     # printlevel mini
|  5>     print[ P_Basis ] 0
|  6>     print[ P_SCFInfo ] 1
|  7>     print[ P_SCFIterInfo ] 1
|  8>     print[ P_OrbEn ] 0
|  9>     print[ P_Cartesian ] 0
| 10> end
| 11> *xyz 0 1
| 12>  C        0.9735600000     0.1161310000    -0.0669180000
| 13>  C        2.4619060000     0.0771590000    -0.0609910000
| 14>  C        3.3354690000     1.1232180000    -0.0572020000
| 15>  C        4.6859650000     0.6590840000    -0.0519440000
| 16>  N        5.7681880000     1.4846640000    -0.0474730000
| 17>  N        4.8470570000    -0.6445640000    -0.0516510000
| 18>  S        3.3694430000    -1.3701390000    -0.0577820000
| 19>  H        0.6212860000     1.1483460000    -0.0682170000
| 20>  H        0.5589340000    -0.3828230000     0.8123540000
| 21>  H        0.5659490000    -0.3826490000    -0.9495600000
| 22>  H        3.0390330000     2.1643940000    -0.0581070000
| 23>  H        5.6628470000     2.4786120000    -0.0469090000
| 24>  H        6.6871720000     1.0856550000    -0.0433990000
| 25> *
| 26>
| 27>                          ****END OF INPUT****
 Total Charge           Charge          ....    0
 Multiplicity           Mult            ....    1
 Number of Electrons    NEL             ....   60
 Basis Dimension        Dim             ....  132

MULLIKEN ATOMIC CHARGES
-----------------------
   0 C :    0.090835
   1 C :   -0.236570
   2 C :   -0.023400
   3 C :    0.015917
   4 N :   -0.032624
   5 N :   -0.344717
   6 S :    0.241473
   7 H :    0.023420
   8 H :    0.043660
   9 H :    0.043558
  10 H :   -0.038814
  11 H :    0.103710
  12 H :    0.113553
Sum of atomic charges:   -0.0000000

LOEWDIN ATOMIC CHARGES
----------------------
   0 C :   -0.065953
   1 C :   -0.192644
   2 C :   -0.128142
   3 C :   -0.025323
   4 N :   -0.001406
   5 N :   -0.339288
   6 S :    0.461425
   7 H :    0.039324
   8 H :    0.041992
   9 H :    0.041973
  10 H :    0.023612
  11 H :    0.071049
  12 H :    0.073379

  Mayer bond orders larger than 0.1
B(  0-C ,  1-C ) :   1.0831 B(  0-C ,  7-H ) :   0.9493 B(  0-C ,  8-H ) :   0.9448
B(  0-C ,  9-H ) :   0.9448 B(  1-C ,  2-C ) :   1.5556 B(  1-C ,  5-N ) :   0.1356
B(  1-C ,  6-S ) :   1.1746 B(  2-C ,  3-C ) :   1.1483 B(  2-C , 10-H ) :   0.9811
B(  3-C ,  4-N ) :   1.2705 B(  3-C ,  5-N ) :   1.5430 B(  4-N , 11-H ) :   0.9433
B(  4-N , 12-H ) :   0.9413 B(  5-N ,  6-S ) :   1.1320

FINAL SINGLE POINT ENERGY      -662.912708026289

DIPOLE MOMENT
-------------
                                X             Y             Z
Electronic contribution:      3.86805      -4.79477       0.01387
Nuclear contribution   :     -4.19254       5.88956      -0.01408
                        -----------------------------------------
Total Dipole Moment    :     -0.32449       1.09480      -0.00021
                        -----------------------------------------
Magnitude (a.u.)       :      1.14187
Magnitude (Debye)      :      2.90241

                             ****ORCA TERMINATED NORMALLY****
TOTAL RUN TIME: 0 days 0 hours 0 minutes 6 seconds 54 msec
