                         Program Version 3.0.3 - RELEASE   -
|  1> ! RI PBE def2-SVP def2-SVP/J NBO PAL2
|  2> % maxcore 2000
|  3> % output
|  4>     # printlevel mini
|  5>     print[ P_Basis ] 0
|  6>     print[ P_SCFInfo ] 1
|  7>     print[ P_SCFIterInfo ] 1
|  8>     print[ P_OrbEn ] 0
|  9>     print[ P_Cartesian ] 0
| 10> end
| 11> *xyz 0 1
| 12>  C        0.9062630000    -0.0419250000     0.0449190000
| 13>  C        2.3933650000    -0.0313910000     0.0495810000
| 14>  C        3.2117190000     1.0503200000     0.0534470000
| 15>  C        4.6193310000     0.7323860000     0.0574090000
| 16>  N        5.6872460000     1.4241780000     0.0615790000
| 17>  S        4.7447090000    -1.0482670000     0.0556400000
| 18>  N        3.0550720000    -1.2125030000     0.0503240000
| 19>  H        0.5191160000     0.9754870000     0.0445710000
| 20>  H        0.5174800000    -0.5583370000     0.9270320000
| 21>  H        0.5229980000    -0.5568380000    -0.8404790000
| 22>  H        2.8583600000     2.0713310000     0.0536050000
| 23>  H        5.4683790000     2.4171660000     0.0621530000
| 24>  H        2.6185530000    -2.1153880000     0.0473900000
| 25> *
| 26>
| 27>                          ****END OF INPUT****
 Total Charge           Charge          ....    0
 Multiplicity           Mult            ....    1
 Number of Electrons    NEL             ....   60
 Basis Dimension        Dim             ....  132

MULLIKEN ATOMIC CHARGES
-----------------------
   0 C :    0.085719
   1 C :    0.010742
   2 C :   -0.032473
   3 C :   -0.181894
   4 N :   -0.123226
   5 S :    0.203163
   6 N :   -0.264964
   7 H :    0.029115
   8 H :    0.043597
   9 H :    0.043492
  10 H :   -0.030109
  11 H :    0.084942
  12 H :    0.131898
Sum of atomic charges:   -0.0000000

LOEWDIN ATOMIC CHARGES
----------------------
   0 C :   -0.056080
   1 C :   -0.003200
   2 C :   -0.158032
   3 C :   -0.146824
   4 N :   -0.190736
   5 S :    0.378964
   6 N :   -0.106938
   7 H :    0.045341
   8 H :    0.042755
   9 H :    0.042730
  10 H :    0.029389
  11 H :    0.049664
  12 H :    0.072967

  Mayer bond orders larger than 0.1
B(  0-C ,  1-C ) :   1.1012 B(  0-C ,  7-H ) :   0.9433 B(  0-C ,  8-H ) :   0.9408
B(  0-C ,  9-H ) :   0.9408 B(  1-C ,  2-C ) :   1.5246 B(  1-C ,  6-N ) :   1.1667
B(  2-C ,  3-C ) :   1.0880 B(  2-C ,  6-N ) :   0.1098 B(  2-C , 10-H ) :   0.9877
B(  3-C ,  4-N ) :   1.9397 B(  3-C ,  5-S ) :   0.9814 B(  4-N ,  5-S ) :   0.1275
B(  4-N , 11-H ) :   0.9285 B(  5-S ,  6-N ) :   0.9502 B(  6-N , 12-H ) :   0.9355

FINAL SINGLE POINT ENERGY      -662.884416138423

DIPOLE MOMENT
-------------
                                X             Y             Z
Electronic contribution:      7.20739      -3.07271       0.01882
Nuclear contribution   :     -9.04241       2.51315      -0.02543
                        -----------------------------------------
Total Dipole Moment    :     -1.83502      -0.55956      -0.00661
                        -----------------------------------------
Magnitude (a.u.)       :      1.91845
Magnitude (Debye)      :      4.87632

                             ****ORCA TERMINATED NORMALLY****
TOTAL RUN TIME: 0 days 0 hours 0 minutes 6 seconds 527 msec
