                         Program Version 3.0.3 - RELEASE   -
|  1> ! RI PBE def2-SVP def2-SVP/J NBO PAL2
|  2> % maxcore 2000
|  3> % output
|  4>     # printlevel mini
|  5>     print[ P_Basis ] 0
|  6>     print[ P_SCFInfo ] 1
|  7>     print[ P_SCFIterInfo ] 1
|  8>     print[ P_OrbEn ] 0
|  9>     print[ P_Cartesian ] 0
| 10> end
| 11> *xyz 0 1
| 12>  C        0.9802950000     0.1500430000    -0.0395050000
| 13>  C        2.4678960000     0.0738460000    -0.0338950000
| 14>  C        3.3604750000     1.1058220000    -0.0306540000
| 15>  C        4.7142040000     0.6708420000    -0.0254980000
| 16>  O        5.7921560000     1.4949710000    -0.0215380000
| 17>  C        4.8345800000    -0.6859010000    -0.0248840000
| 18>  S        3.2930640000    -1.4284040000    -0.0306130000
| 19>  H        0.6624870000     1.1937720000    -0.0408790000
| 20>  H        0.5465060000    -0.3319030000     0.8405000000
| 21>  H        0.5531390000    -0.3322040000    -0.9225840000
| 22>  H        3.0597620000     2.1478570000    -0.0319130000
| 23>  H        5.4902580000     2.4062640000    -0.0227310000
| 24>  H        5.7419690000    -1.2680050000    -0.0213950000
| 25> *
| 26>
| 27>                          ****END OF INPUT****
 Total Charge           Charge          ....    0
 Multiplicity           Mult            ....    1
 Number of Electrons    NEL             ....   60
 Basis Dimension        Dim             ....  132

MULLIKEN ATOMIC CHARGES
-----------------------
   0 C :    0.091388
   1 C :   -0.253174
   2 C :   -0.002506
   3 C :    0.144530
   4 O :   -0.162780
   5 C :   -0.158956
   6 S :    0.091997
   7 H :    0.021358
   8 H :    0.041352
   9 H :    0.041241
  10 H :   -0.036253
  11 H :    0.167354
  12 H :    0.014448
Sum of atomic charges:   -0.0000000

LOEWDIN ATOMIC CHARGES
----------------------
   0 C :   -0.066554
   1 C :   -0.193188
   2 C :   -0.121976
   3 C :   -0.012728
   4 O :   -0.034624
   5 C :   -0.254848
   6 S :    0.430736
   7 H :    0.039111
   8 H :    0.039537
   9 H :    0.039516
  10 H :    0.022933
  11 H :    0.086251
  12 H :    0.025834

  Mayer bond orders larger than 0.1
B(  0-C ,  1-C ) :   1.0876 B(  0-C ,  7-H ) :   0.9509 B(  0-C ,  8-H ) :   0.9460
B(  0-C ,  9-H ) :   0.9460 B(  1-C ,  2-C ) :   1.5191 B(  1-C ,  5-C ) :   0.1034
B(  1-C ,  6-S ) :   1.1931 B(  2-C ,  3-C ) :   1.2039 B(  2-C , 10-H ) :   0.9844
B(  3-C ,  4-O ) :   1.2038 B(  3-C ,  5-C ) :   1.5122 B(  4-O , 11-H ) :   0.9694
B(  5-C ,  6-S ) :   1.1164 B(  5-C , 12-H ) :   0.9701

FINAL SINGLE POINT ENERGY      -666.721775529347

DIPOLE MOMENT
-------------
                                X             Y             Z
Electronic contribution:      4.64337      -3.09812       0.01787
Nuclear contribution   :     -5.15743       3.75351      -0.01981
                        -----------------------------------------
Total Dipole Moment    :     -0.51406       0.65539      -0.00194
                        -----------------------------------------
Magnitude (a.u.)       :      0.83294
Magnitude (Debye)      :      2.11717

                             ****ORCA TERMINATED NORMALLY****
TOTAL RUN TIME: 0 days 0 hours 0 minutes 7 seconds 65 msec
