                         Program Version 3.0.3 - RELEASE   -
|  1> ! RI PBE def2-SVP def2-SVP/J NBO PAL2
|  2> % maxcore 2000
|  3> % output
|  4>     # printlevel mini
|  5>     print[ P_Basis ] 0
|  6>     print[ P_SCFInfo ] 1
|  7>     print[ P_SCFIterInfo ] 1
|  8>     print[ P_OrbEn ] 0
|  9>     print[ P_Cartesian ] 0
| 10> end
| 11> *xyz 0 1
| 12>  C        0.9786660000     0.1250230000    -0.0035610000
| 13>  C        2.4656850000     0.0939160000     0.0015710000
| 14>  C        3.3301560000     1.1251060000     0.0035940000
| 15>  C        4.7355510000     0.7368160000     0.0087990000
| 16>  O        5.7322650000     1.4282380000     0.0115500000
| 17>  N        4.7674190000    -0.6503520000     0.0100890000
| 18>  S        3.2813700000    -1.4287820000     0.0057080000
| 19>  H        0.6289420000     1.1572630000    -0.0055910000
| 20>  H        0.5693400000    -0.3750380000     0.8776480000
| 21>  H        0.5754070000    -0.3764510000    -0.8867620000
| 22>  H        3.0388140000     2.1656880000     0.0016410000
| 23>  H        5.6343860000    -1.1613280000     0.0135230000
| 24> *
| 25>
| 26>                          ****END OF INPUT****
 Total Charge           Charge          ....    0
 Multiplicity           Mult            ....    1
 Number of Electrons    NEL             ....   60
 Basis Dimension        Dim             ....  127

MULLIKEN ATOMIC CHARGES
-----------------------
   0 C :    0.085423
   1 C :   -0.195441
   2 C :   -0.099690
   3 C :    0.180304
   4 O :   -0.191910
   5 N :   -0.291426
   6 S :    0.239608
   7 H :    0.038683
   8 H :    0.049992
   9 H :    0.049926
  10 H :   -0.005945
  11 H :    0.140475
Sum of atomic charges:   -0.0000000

LOEWDIN ATOMIC CHARGES
----------------------
   0 C :   -0.064398
   1 C :   -0.165313
   2 C :   -0.109035
   3 C :   -0.002420
   4 O :   -0.192901
   5 N :   -0.137926
   6 S :    0.424103
   7 H :    0.046488
   8 H :    0.044744
   9 H :    0.044735
  10 H :    0.038525
  11 H :    0.073399

  Mayer bond orders larger than 0.1
B(  0-C ,  1-C ) :   1.0864 B(  0-C ,  7-H ) :   0.9528 B(  0-C ,  8-H ) :   0.9437
B(  0-C ,  9-H ) :   0.9437 B(  1-C ,  2-C ) :   1.6400 B(  1-C ,  6-S ) :   1.0909
B(  2-C ,  3-C ) :   1.0191 B(  2-C ,  6-S ) :   0.1186 B(  2-C , 10-H ) :   1.0022
B(  3-C ,  4-O ) :   2.1067 B(  3-C ,  5-N ) :   1.0233 B(  5-N ,  6-S ) :   0.9787
B(  5-N , 11-H ) :   0.9158

FINAL SINGLE POINT ENERGY      -682.755952982832

DIPOLE MOMENT
-------------
                                X             Y             Z
Electronic contribution:      5.71154      -2.56859       0.02192
Nuclear contribution   :     -6.95464       1.61165      -0.02531
                        -----------------------------------------
Total Dipole Moment    :     -1.24310      -0.95694      -0.00339
                        -----------------------------------------
Magnitude (a.u.)       :      1.56877
Magnitude (Debye)      :      3.98749

                             ****ORCA TERMINATED NORMALLY****
TOTAL RUN TIME: 0 days 0 hours 0 minutes 6 seconds 974 msec
