                         Program Version 3.0.3 - RELEASE   -
|  1> ! RI PBE def2-SVP def2-SVP/J NBO PAL2
|  2> % maxcore 2000
|  3> % output
|  4>     # printlevel mini
|  5>     print[ P_Basis ] 0
|  6>     print[ P_SCFInfo ] 1
|  7>     print[ P_SCFIterInfo ] 1
|  8>     print[ P_OrbEn ] 0
|  9>     print[ P_Cartesian ] 0
| 10> end
| 11> *xyz 0 1
| 12>  C        0.9746490000    -0.0015440000    -0.1002640000
| 13>  C        2.4647360000     0.0584030000    -0.0962740000
| 14>  N        3.0593280000     1.2316030000    -0.0943080000
| 15>  S        4.6925720000     1.0209000000    -0.0900230000
| 16>  C        4.6197850000    -0.6956560000    -0.0907800000
| 17>  O        5.6753210000    -1.5234390000    -0.0882420000
| 18>  C        3.3105750000    -1.0794220000    -0.0943940000
| 19>  H        0.5635980000     1.0069420000    -0.1010030000
| 20>  H        0.6044210000    -0.5340730000     0.7797560000
| 21>  H        0.6091170000    -0.5334470000    -0.9826230000
| 22>  H        6.4985010000    -1.0266490000    -0.0858500000
| 23>  H        2.9819970000    -2.1091160000    -0.0956040000
| 24> *
| 25>
| 26>                          ****END OF INPUT****
 Total Charge           Charge          ....    0
 Multiplicity           Mult            ....    1
 Number of Electrons    NEL             ....   60
 Basis Dimension        Dim             ....  127

MULLIKEN ATOMIC CHARGES
-----------------------
   0 C :    0.084318
   1 C :   -0.085471
   2 N :   -0.303929
   3 S :    0.204850
   4 C :   -0.015265
   5 O :   -0.126141
   6 C :   -0.025657
   7 H :    0.030889
   8 H :    0.035327
   9 H :    0.035274
  10 H :    0.182699
  11 H :   -0.016895
Sum of atomic charges:    0.0000000

LOEWDIN ATOMIC CHARGES
----------------------
   0 C :   -0.061055
   1 C :   -0.041117
   2 N :   -0.292939
   3 S :    0.432404
   4 C :   -0.134719
   5 O :   -0.012967
   6 C :   -0.137357
   7 H :    0.040034
   8 H :    0.040419
   9 H :    0.040412
  10 H :    0.093236
  11 H :    0.033648

  Mayer bond orders larger than 0.1
B(  0-C ,  1-C ) :   1.0935 B(  0-C ,  7-H ) :   0.9450 B(  0-C ,  8-H ) :   0.9467
B(  0-C ,  9-H ) :   0.9467 B(  1-C ,  2-N ) :   1.6182 B(  1-C ,  6-C ) :   1.2090
B(  2-N ,  3-S ) :   1.1485 B(  2-N ,  4-C ) :   0.1409 B(  3-S ,  4-C ) :   1.1218
B(  4-C ,  5-O ) :   1.2184 B(  4-C ,  6-C ) :   1.4625 B(  5-O , 10-H ) :   0.9576
B(  6-C , 11-H ) :   1.0005

FINAL SINGLE POINT ENERGY      -682.742830426187

DIPOLE MOMENT
-------------
                                X             Y             Z
Electronic contribution:      7.60771       2.56101       0.02110
Nuclear contribution   :     -7.03961      -3.11512      -0.01975
                        -----------------------------------------
Total Dipole Moment    :      0.56811      -0.55412       0.00136
                        -----------------------------------------
Magnitude (a.u.)       :      0.79359
Magnitude (Debye)      :      2.01716

                             ****ORCA TERMINATED NORMALLY****
TOTAL RUN TIME: 0 days 0 hours 0 minutes 6 seconds 326 msec
