                         Program Version 3.0.3 - RELEASE   -
|  1> ! RI PBE def2-SVP def2-SVP/J NBO PAL2
|  2> % maxcore 2000
|  3> % output
|  4>     # printlevel mini
|  5>     print[ P_Basis ] 0
|  6>     print[ P_SCFInfo ] 1
|  7>     print[ P_SCFIterInfo ] 1
|  8>     print[ P_OrbEn ] 0
|  9>     print[ P_Cartesian ] 0
| 10> end
| 11> *xyz 0 1
| 12>  C        0.9478710000    -0.0881460000     0.0190780000
| 13>  C        2.4350690000    -0.0726110000     0.0232160000
| 14>  C        3.2445290000     1.0219750000     0.0261020000
| 15>  C        4.6493070000     0.7350240000     0.0298110000
| 16>  O        5.6197770000     1.4446850000     0.0329500000
| 17>  S        4.7792720000    -1.0969520000     0.0291690000
| 18>  N        3.0985460000    -1.2466360000     0.0244150000
| 19>  H        0.5573440000     0.9277230000     0.0184920000
| 20>  H        0.5615980000    -0.6052680000     0.9016710000
| 21>  H        0.5665030000    -0.6044030000    -0.8661500000
| 22>  H        2.8899140000     2.0415800000     0.0257230000
| 23>  H        2.6531490000    -2.1464590000     0.0226320000
| 24> *
| 25>
| 26>                          ****END OF INPUT****
 Total Charge           Charge          ....    0
 Multiplicity           Mult            ....    1
 Number of Electrons    NEL             ....   60
 Basis Dimension        Dim             ....  127

MULLIKEN ATOMIC CHARGES
-----------------------
   0 C :    0.082084
   1 C :    0.014361
   2 C :   -0.087926
   3 C :    0.014297
   4 O :   -0.167790
   5 S :    0.136115
   6 N :   -0.246868
   7 H :    0.034272
   8 H :    0.047041
   9 H :    0.046982
  10 H :   -0.009366
  11 H :    0.136800
Sum of atomic charges:   -0.0000000

LOEWDIN ATOMIC CHARGES
----------------------
   0 C :   -0.055066
   1 C :    0.000469
   2 C :   -0.157201
   3 C :   -0.106692
   4 O :   -0.164252
   5 S :    0.325368
   6 N :   -0.091942
   7 H :    0.047359
   8 H :    0.044585
   9 H :    0.044575
  10 H :    0.036821
  11 H :    0.075976

  Mayer bond orders larger than 0.1
B(  0-C ,  1-C ) :   1.1002 B(  0-C ,  7-H ) :   0.9441 B(  0-C ,  8-H ) :   0.9421
B(  0-C ,  9-H ) :   0.9420 B(  1-C ,  2-C ) :   1.4809 B(  1-C ,  6-N ) :   1.1917
B(  2-C ,  3-C ) :   1.1127 B(  2-C ,  6-N ) :   0.1062 B(  2-C , 10-H ) :   0.9964
B(  3-C ,  4-O ) :   2.0843 B(  3-C ,  5-S ) :   0.9114 B(  4-O ,  5-S ) :   0.1836
B(  5-S ,  6-N ) :   0.9696 B(  6-N , 11-H ) :   0.9319

FINAL SINGLE POINT ENERGY      -682.756638053280

DIPOLE MOMENT
-------------
                                X             Y             Z
Electronic contribution:      8.80831      -1.25633       0.02373
Nuclear contribution   :    -10.71143       0.11981      -0.02971
                        -----------------------------------------
Total Dipole Moment    :     -1.90312      -1.13653      -0.00598
                        -----------------------------------------
Magnitude (a.u.)       :      2.21666
Magnitude (Debye)      :      5.63430

                             ****ORCA TERMINATED NORMALLY****
TOTAL RUN TIME: 0 days 0 hours 0 minutes 6 seconds 413 msec
