                         Program Version 3.0.3 - RELEASE   -
|  1> ! RI PBE def2-SVP def2-SVP/J NBO PAL2
|  2> % maxcore 2000
|  3> % output
|  4>     # printlevel mini
|  5>     print[ P_Basis ] 0
|  6>     print[ P_SCFInfo ] 1
|  7>     print[ P_SCFIterInfo ] 1
|  8>     print[ P_OrbEn ] 0
|  9>     print[ P_Cartesian ] 0
| 10> end
| 11> *xyz 0 1
| 12>  C        0.8203560000     0.0779630000     0.0618900000
| 13>  C        2.3248810000     0.0489430000     0.0447810000
| 14>  C        3.1068350000     1.0720050000     0.9002480000
| 15>  C        4.2019750000     0.1197160000     1.4209910000
| 16>  S        3.1502150000    -1.2705270000     0.9755730000
| 17>  O        2.3433740000    -1.6598470000     2.1014540000
| 18>  O        3.7880970000    -2.2699980000     0.1678700000
| 19>  H        0.4581890000     1.0195770000    -0.3590380000
| 20>  H        0.4470400000    -0.0137400000     1.0834060000
| 21>  H        0.4009990000    -0.7373710000    -0.5302290000
| 22>  H        2.7279070000     0.0016500000    -0.9703260000
| 23>  H        2.4856150000     1.4396560000     1.7175100000
| 24>  H        3.4879950000     1.9205900000     0.3334660000
| 25>  H        4.4489580000     0.1674250000     2.4793460000
| 26>  H        5.1029730000     0.1076490000     0.8080690000
| 27> *
| 28>
| 29>                          ****END OF INPUT****
 Total Charge           Charge          ....    0
 Multiplicity           Mult            ....    1
 Number of Electrons    NEL             ....   64
 Basis Dimension        Dim             ....  142

MULLIKEN ATOMIC CHARGES
-----------------------
   0 C :    0.071977
   1 C :   -0.195306
   2 C :   -0.032062
   3 C :    0.028222
   4 S :    0.560756
   5 O :   -0.407086
   6 O :   -0.395781
   7 H :    0.036794
   8 H :    0.037636
   9 H :    0.045946
  10 H :    0.046226
  11 H :    0.040247
  12 H :    0.043142
  13 H :    0.064568
  14 H :    0.054722
Sum of atomic charges:    0.0000000

LOEWDIN ATOMIC CHARGES
----------------------
   0 C :   -0.067433
   1 C :   -0.158484
   2 C :   -0.049674
   3 C :   -0.152718
   4 S :    1.078060
   5 O :   -0.471232
   6 O :   -0.461913
   7 H :    0.037632
   8 H :    0.033437
   9 H :    0.039409
  10 H :    0.032075
  11 H :    0.035694
  12 H :    0.034811
  13 H :    0.035293
  14 H :    0.035043

  Mayer bond orders larger than 0.1
B(  0-C ,  1-C ) :   1.0813 B(  0-C ,  7-H ) :   0.9554 B(  0-C ,  8-H ) :   0.9465
B(  0-C ,  9-H ) :   0.9585 B(  1-C ,  2-C ) :   1.0510 B(  1-C ,  4-S ) :   0.7830
B(  1-C , 10-H ) :   0.8956 B(  2-C ,  3-C ) :   1.1113 B(  2-C , 11-H ) :   0.9220
B(  2-C , 12-H ) :   0.9303 B(  3-C ,  4-S ) :   0.8312 B(  3-C , 13-H ) :   0.9299
B(  3-C , 14-H ) :   0.9172 B(  4-S ,  5-O ) :   1.7066 B(  4-S ,  6-O ) :   1.7511

FINAL SINGLE POINT ENERGY      -704.909144169159

DIPOLE MOMENT
-------------
                                X             Y             Z
Electronic contribution:      3.20013      -7.22357       1.66813
Nuclear contribution   :     -3.16098       8.87912      -2.04488
                        -----------------------------------------
Total Dipole Moment    :      0.03915       1.65555      -0.37675
                        -----------------------------------------
Magnitude (a.u.)       :      1.69833
Magnitude (Debye)      :      4.31681

                             ****ORCA TERMINATED NORMALLY****
TOTAL RUN TIME: 0 days 0 hours 0 minutes 6 seconds 646 msec
