                         Program Version 3.0.3 - RELEASE   -
|  1> ! RI PBE def2-SVP def2-SVP/J NBO PAL2
|  2> % maxcore 2000
|  3> % output
|  4>     # printlevel mini
|  5>     print[ P_Basis ] 0
|  6>     print[ P_SCFInfo ] 1
|  7>     print[ P_SCFIterInfo ] 1
|  8>     print[ P_OrbEn ] 0
|  9>     print[ P_Cartesian ] 0
| 10> end
| 11> *xyz 0 1
| 12>  C        0.7703050000     0.0445800000    -0.0301070000
| 13>  C        2.2613560000     0.0549610000    -0.0344880000
| 14>  C        3.1254370000     1.1186180000    -0.0322990000
| 15>  C        2.7361590000     2.5619090000    -0.0247300000
| 16>  C        4.4882620000     0.6992560000    -0.0381870000
| 17>  C        4.6384800000    -0.6505870000    -0.0446630000
| 18>  S        3.1233410000    -1.4348650000    -0.0436670000
| 19>  H        0.3778200000     1.0614680000    -0.0247930000
| 20>  H        0.3718420000    -0.4671140000     0.8502390000
| 21>  H        0.3666230000    -0.4599070000    -0.9122300000
| 22>  H        1.6550880000     2.6989490000    -0.0205930000
| 23>  H        3.1313160000     3.0791790000    -0.9037730000
| 24>  H        3.1370690000     3.0714870000     0.8561950000
| 25>  H        5.3229480000     1.3897820000    -0.0375700000
| 26>  H        5.5534440000    -1.2229260000    -0.0499220000
| 27> *
| 28>
| 29>                          ****END OF INPUT****
 Total Charge           Charge          ....    0
 Multiplicity           Mult            ....    1
 Number of Electrons    NEL             ....   60
 Basis Dimension        Dim             ....  142

MULLIKEN ATOMIC CHARGES
-----------------------
   0 C :    0.091808
   1 C :   -0.289382
   2 C :   -0.050029
   3 C :    0.070814
   4 C :    0.015622
   5 C :   -0.079719
   6 S :    0.081394
   7 H :    0.016610
   8 H :    0.037464
   9 H :    0.037425
  10 H :    0.007917
  11 H :    0.031274
  12 H :    0.031070
  13 H :   -0.026603
  14 H :    0.024336
Sum of atomic charges:   -0.0000000

LOEWDIN ATOMIC CHARGES
----------------------
   0 C :   -0.070305
   1 C :   -0.203617
   2 C :   -0.081857
   3 C :   -0.056545
   4 C :   -0.073408
   5 C :   -0.205274
   6 S :    0.424204
   7 H :    0.035873
   8 H :    0.038235
   9 H :    0.038226
  10 H :    0.028423
  11 H :    0.037910
  12 H :    0.037867
  13 H :    0.026443
  14 H :    0.023824

  Mayer bond orders larger than 0.1
B(  0-C ,  1-C ) :   1.1006 B(  0-C ,  7-H ) :   0.9445 B(  0-C ,  8-H ) :   0.9427
B(  0-C ,  9-H ) :   0.9427 B(  1-C ,  2-C ) :   1.5581 B(  1-C ,  6-S ) :   1.1430
B(  2-C ,  3-C ) :   1.1189 B(  2-C ,  4-C ) :   1.2611 B(  3-C , 10-H ) :   0.9449
B(  3-C , 11-H ) :   0.9415 B(  3-C , 12-H ) :   0.9415 B(  4-C ,  5-C ) :   1.5381
B(  4-C , 13-H ) :   0.9924 B(  5-C ,  6-S ) :   1.1639 B(  5-C , 14-H ) :   0.9675

FINAL SINGLE POINT ENERGY      -630.863310917263

DIPOLE MOMENT
-------------
                                X             Y             Z
Electronic contribution:      3.68451      -7.71067      -0.04527
Nuclear contribution   :     -3.84014       8.01300       0.04705
                        -----------------------------------------
Total Dipole Moment    :     -0.15563       0.30233       0.00178
                        -----------------------------------------
Magnitude (a.u.)       :      0.34004
Magnitude (Debye)      :      0.86430

                             ****ORCA TERMINATED NORMALLY****
TOTAL RUN TIME: 0 days 0 hours 0 minutes 7 seconds 10 msec
