                         Program Version 3.0.3 - RELEASE   -
|  1> ! RI PBE def2-SVP def2-SVP/J NBO PAL2
|  2> % maxcore 2000
|  3> % output
|  4>     # printlevel mini
|  5>     print[ P_Basis ] 0
|  6>     print[ P_SCFInfo ] 1
|  7>     print[ P_SCFIterInfo ] 1
|  8>     print[ P_OrbEn ] 0
|  9>     print[ P_Cartesian ] 0
| 10> end
| 11> *xyz 0 1
| 12>  C        1.0058530000     0.0076300000     0.0646770000
| 13>  C        2.4990890000     0.0770590000     0.0647190000
| 14>  C        3.2345230000     1.2358390000     0.0618160000
| 15>  N        2.7856240000     2.5296690000     0.0584710000
| 16>  S        4.9306940000     0.9110420000     0.0629510000
| 17>  C        4.6700390000    -0.7884220000     0.0673710000
| 18>  C        3.3438290000    -1.0700340000     0.0678570000
| 19>  H        0.5420970000     0.9964420000     0.0628440000
| 20>  H        0.6282580000    -0.5183400000     0.9468290000
| 21>  H        0.6283900000    -0.5216250000    -0.8155700000
| 22>  H        1.8042010000     2.7229960000     0.0560010000
| 23>  H        3.4201870000     3.3022160000     0.0554200000
| 24>  H        5.5102830000    -1.4637970000     0.0693590000
| 25>  H        2.9582240000    -2.0827740000     0.0704650000
| 26> *
| 27>
| 28>                          ****END OF INPUT****
 Total Charge           Charge          ....    0
 Multiplicity           Mult            ....    1
 Number of Electrons    NEL             ....   60
 Basis Dimension        Dim             ....  137

MULLIKEN ATOMIC CHARGES
-----------------------
   0 C :    0.072700
   1 C :   -0.054131
   2 C :   -0.179855
   3 N :   -0.052538
   4 S :    0.048199
   5 C :   -0.098396
   6 C :    0.011842
   7 H :   -0.010843
   8 H :    0.030134
   9 H :    0.030196
  10 H :    0.101161
  11 H :    0.111755
  12 H :    0.018344
  13 H :   -0.028568
Sum of atomic charges:   -0.0000000

LOEWDIN ATOMIC CHARGES
----------------------
   0 C :   -0.056567
   1 C :   -0.139310
   2 C :   -0.149633
   3 N :   -0.017962
   4 S :    0.383780
   5 C :   -0.230517
   6 C :   -0.067572
   7 H :    0.021844
   8 H :    0.035236
   9 H :    0.035225
  10 H :    0.069260
  11 H :    0.069455
  12 H :    0.021103
  13 H :    0.025655

  Mayer bond orders larger than 0.1
B(  0-C ,  1-C ) :   1.1180 B(  0-C ,  7-H ) :   0.9461 B(  0-C ,  8-H ) :   0.9440
B(  0-C ,  9-H ) :   0.9440 B(  1-C ,  2-C ) :   1.4505 B(  1-C ,  6-C ) :   1.2591
B(  2-C ,  3-N ) :   1.2456 B(  2-C ,  4-S ) :   1.1195 B(  3-N , 10-H ) :   0.9507
B(  3-N , 11-H ) :   0.9462 B(  4-S ,  5-C ) :   1.1025 B(  5-C ,  6-C ) :   1.5522
B(  5-C , 12-H ) :   0.9688 B(  6-C , 13-H ) :   0.9934

FINAL SINGLE POINT ENERGY      -646.879165829319

DIPOLE MOMENT
-------------
                                X             Y             Z
Electronic contribution:      7.63279       1.90583      -0.00305
Nuclear contribution   :     -8.13779      -1.23368      -0.00038
                        -----------------------------------------
Total Dipole Moment    :     -0.50501       0.67215      -0.00344
                        -----------------------------------------
Magnitude (a.u.)       :      0.84073
Magnitude (Debye)      :      2.13697

                             ****ORCA TERMINATED NORMALLY****
TOTAL RUN TIME: 0 days 0 hours 0 minutes 6 seconds 681 msec
