                         Program Version 3.0.3 - RELEASE   -
|  1> ! RI PBE def2-SVP def2-SVP/J NBO PAL2
|  2> % maxcore 2000
|  3> % output
|  4>     # printlevel mini
|  5>     print[ P_Basis ] 0
|  6>     print[ P_SCFInfo ] 1
|  7>     print[ P_SCFIterInfo ] 1
|  8>     print[ P_OrbEn ] 0
|  9>     print[ P_Cartesian ] 0
| 10> end
| 11> *xyz 0 1
| 12>  C        0.9721540000    -0.0055810000    -0.0934410000
| 13>  C        2.4647600000     0.0592690000    -0.0932220000
| 14>  C        3.2036320000     1.2085180000    -0.0960090000
| 15>  O        2.7972480000     2.4968670000    -0.0994340000
| 16>  S        4.8978870000     0.9132300000    -0.0948140000
| 17>  C        4.6404860000    -0.7825680000    -0.0904890000
| 18>  C        3.3174820000    -1.0836510000    -0.0900690000
| 19>  H        0.5058840000     0.9841760000    -0.0952810000
| 20>  H        0.5946370000    -0.5291550000     0.7893170000
| 21>  H        0.5949740000    -0.5323550000    -0.9744430000
| 22>  H        1.8350820000     2.5141870000    -0.1003050000
| 23>  H        5.4834950000    -1.4552610000    -0.0884920000
| 24>  H        2.9426790000    -2.0999860000    -0.0875270000
| 25> *
| 26>
| 27>                          ****END OF INPUT****
 Total Charge           Charge          ....    0
 Multiplicity           Mult            ....    1
 Number of Electrons    NEL             ....   60
 Basis Dimension        Dim             ....  132

MULLIKEN ATOMIC CHARGES
-----------------------
   0 C :    0.062524
   1 C :   -0.072869
   2 C :   -0.084387
   3 O :   -0.144808
   4 S :    0.079780
   5 C :   -0.102047
   6 C :    0.022959
   7 H :   -0.014321
   8 H :    0.040436
   9 H :    0.040505
  10 H :    0.167403
  11 H :    0.026494
  12 H :   -0.021668
Sum of atomic charges:   -0.0000000

LOEWDIN ATOMIC CHARGES
----------------------
   0 C :   -0.054800
   1 C :   -0.140532
   2 C :   -0.138802
   3 O :   -0.034438
   4 S :    0.416743
   5 C :   -0.217372
   6 C :   -0.067830
   7 H :    0.019589
   8 H :    0.039649
   9 H :    0.039645
  10 H :    0.086966
  11 H :    0.023898
  12 H :    0.027286

  Mayer bond orders larger than 0.1
B(  0-C ,  1-C ) :   1.1028 B(  0-C ,  7-H ) :   0.9407 B(  0-C ,  8-H ) :   0.9451
B(  0-C ,  9-H ) :   0.9452 B(  1-C ,  2-C ) :   1.4416 B(  1-C ,  6-C ) :   1.2527
B(  2-C ,  3-O ) :   1.2227 B(  2-C ,  4-S ) :   1.1358 B(  3-O , 10-H ) :   0.9609
B(  4-S ,  5-C ) :   1.1338 B(  5-C ,  6-C ) :   1.5540 B(  5-C , 11-H ) :   0.9678
B(  6-C , 12-H ) :   0.9966

FINAL SINGLE POINT ENERGY      -666.718434684060

DIPOLE MOMENT
-------------
                                X             Y             Z
Electronic contribution:      7.23650       3.84623      -0.00796
Nuclear contribution   :     -8.02389      -4.03126       0.00796
                        -----------------------------------------
Total Dipole Moment    :     -0.78739      -0.18503       0.00000
                        -----------------------------------------
Magnitude (a.u.)       :      0.80884
Magnitude (Debye)      :      2.05590

                             ****ORCA TERMINATED NORMALLY****
TOTAL RUN TIME: 0 days 0 hours 0 minutes 7 seconds 144 msec
