                         Program Version 3.0.3 - RELEASE   -
|  1> ! RI PBE def2-SVP def2-SVP/J NBO PAL2
|  2> % maxcore 2000
|  3> % output
|  4>     # printlevel mini
|  5>     print[ P_Basis ] 0
|  6>     print[ P_SCFInfo ] 1
|  7>     print[ P_SCFIterInfo ] 1
|  8>     print[ P_OrbEn ] 0
|  9>     print[ P_Cartesian ] 0
| 10> end
| 11> *xyz 0 1
| 12>  C        0.9055320000    -0.0389730000     0.1198750000
| 13>  C        2.3562820000     0.2082170000    -0.1545560000
| 14>  C        3.1227090000    -0.5423890000    -1.1836680000
| 15>  N        2.7231540000     0.8135780000    -1.4310420000
| 16>  C        3.6428870000     1.8423700000    -1.5200710000
| 17>  N        3.1414820000     3.0197930000    -1.0959440000
| 18>  S        5.1764310000     1.6765940000    -2.1040920000
| 19>  H        0.7897930000    -0.8216720000     0.8738720000
| 20>  H        0.3914080000    -0.3550500000    -0.7893690000
| 21>  H        0.4137150000     0.8616930000     0.4968810000
| 22>  H        2.9473260000     0.5523150000     0.6921090000
| 23>  H        2.6124680000    -1.2874540000    -1.7854770000
| 24>  H        4.1827580000    -0.7088850000    -1.0206930000
| 25>  H        2.1491260000     3.1182630000    -0.9621980000
| 26>  H        3.6961180000     3.8429990000    -1.2475270000
| 27> *
| 28>
| 29>                          ****END OF INPUT****
 Total Charge           Charge          ....    0
 Multiplicity           Mult            ....    1
 Number of Electrons    NEL             ....   62
 Basis Dimension        Dim             ....  142

MULLIKEN ATOMIC CHARGES
-----------------------
   0 C :    0.082557
   1 C :   -0.113471
   2 C :    0.122393
   3 N :   -0.205231
   4 C :   -0.050110
   5 N :   -0.007985
   6 S :   -0.244538
   7 H :    0.036650
   8 H :    0.022725
   9 H :    0.024894
  10 H :    0.033098
  11 H :    0.029514
  12 H :    0.038613
  13 H :    0.111535
  14 H :    0.119356
Sum of atomic charges:   -0.0000000

LOEWDIN ATOMIC CHARGES
----------------------
   0 C :   -0.065532
   1 C :    0.016568
   2 C :    0.027423
   3 N :   -0.076849
   4 C :   -0.130922
   5 N :    0.026683
   6 S :   -0.112239
   7 H :    0.037991
   8 H :    0.035471
   9 H :    0.031051
  10 H :    0.023342
  11 H :    0.024422
  12 H :    0.017639
  13 H :    0.070843
  14 H :    0.074110

  Mayer bond orders larger than 0.1
B(  0-C ,  1-C ) :   1.0883 B(  0-C ,  7-H ) :   0.9529 B(  0-C ,  8-H ) :   0.9455
B(  0-C ,  9-H ) :   0.9538 B(  1-C ,  2-C ) :   1.0536 B(  1-C ,  3-N ) :   0.8819
B(  1-C , 10-H ) :   0.9271 B(  2-C ,  3-N ) :   0.9594 B(  2-C , 11-H ) :   0.9380
B(  2-C , 12-H ) :   0.9195 B(  3-N ,  4-C ) :   1.1234 B(  4-C ,  5-N ) :   1.2974
B(  4-C ,  6-S ) :   1.6284 B(  5-N , 13-H ) :   0.9323 B(  5-N , 14-H ) :   0.9406

FINAL SINGLE POINT ENERGY      -664.086461073896

DIPOLE MOMENT
-------------
                                X             Y             Z
Electronic contribution:      7.46157       3.76996      -4.62072
Nuclear contribution   :     -8.86442      -3.54650       5.52724
                        -----------------------------------------
Total Dipole Moment    :     -1.40285       0.22346       0.90652
                        -----------------------------------------
Magnitude (a.u.)       :      1.68514
Magnitude (Debye)      :      4.28329

                             ****ORCA TERMINATED NORMALLY****
TOTAL RUN TIME: 0 days 0 hours 0 minutes 7 seconds 3 msec
