                         Program Version 3.0.3 - RELEASE   -
|  1> ! RI PBE def2-SVP def2-SVP/J NBO PAL2
|  2> % maxcore 2000
|  3> % output
|  4>     # printlevel mini
|  5>     print[ P_Basis ] 0
|  6>     print[ P_SCFInfo ] 1
|  7>     print[ P_SCFIterInfo ] 1
|  8>     print[ P_OrbEn ] 0
|  9>     print[ P_Cartesian ] 0
| 10> end
| 11> *xyz 0 1
| 12>  C        0.7476120000     0.0793210000     0.0189430000
| 13>  C        2.2249320000    -0.0909060000     0.0252860000
| 14>  C        3.1921650000     0.8648390000     0.0274580000
| 15>  N        4.4875200000     0.4328820000     0.0335200000
| 16>  C        4.5512940000    -0.8606840000     0.0361720000
| 17>  C        5.8182730000    -1.6400590000     0.0427490000
| 18>  S        2.9975250000    -1.6291780000     0.0313390000
| 19>  H        0.5032320000     1.1429690000     0.0159800000
| 20>  H        0.2817060000    -0.3703200000     0.8997070000
| 21>  H        0.2889010000    -0.3735800000    -0.8639260000
| 22>  H        2.9888940000     1.9289280000     0.0246530000
| 23>  H        6.6527440000    -0.9395980000     0.0449310000
| 24>  H        5.8991650000    -2.2817690000    -0.8380630000
| 25>  H        5.8919270000    -2.2786540000     0.9264530000
| 26> *
| 27>
| 28>                          ****END OF INPUT****
 Total Charge           Charge          ....    0
 Multiplicity           Mult            ....    1
 Number of Electrons    NEL             ....   60
 Basis Dimension        Dim             ....  137

MULLIKEN ATOMIC CHARGES
-----------------------
   0 C :    0.086505
   1 C :   -0.237774
   2 C :    0.054062
   3 N :   -0.083591
   4 C :   -0.223385
   5 C :    0.095895
   6 S :    0.084200
   7 H :    0.028537
   8 H :    0.042456
   9 H :    0.042313
  10 H :   -0.013083
  11 H :    0.039328
  12 H :    0.042297
  13 H :    0.042240
Sum of atomic charges:   -0.0000000

LOEWDIN ATOMIC CHARGES
----------------------
   0 C :   -0.065728
   1 C :   -0.209353
   2 C :   -0.058094
   3 N :   -0.099421
   4 C :   -0.161088
   5 C :   -0.077107
   6 S :    0.395846
   7 H :    0.042246
   8 H :    0.040228
   9 H :    0.040201
  10 H :    0.021876
  11 H :    0.047129
  12 H :    0.041636
  13 H :    0.041630

  Mayer bond orders larger than 0.1
B(  0-C ,  1-C ) :   1.0943 B(  0-C ,  7-H ) :   0.9492 B(  0-C ,  8-H ) :   0.9447
B(  0-C ,  9-H ) :   0.9447 B(  1-C ,  2-C ) :   1.5628 B(  1-C ,  6-S ) :   1.1435
B(  2-C ,  3-N ) :   1.3357 B(  2-C , 10-H ) :   0.9848 B(  3-N ,  4-C ) :   1.7290
B(  3-N ,  6-S ) :   0.1239 B(  4-C ,  5-C ) :   1.0758 B(  4-C ,  6-S ) :   1.1108
B(  5-C , 11-H ) :   0.9412 B(  5-C , 12-H ) :   0.9441 B(  5-C , 13-H ) :   0.9441

FINAL SINGLE POINT ENERGY      -646.895857221033

DIPOLE MOMENT
-------------
                                X             Y             Z
Electronic contribution:      0.46195      -1.42637       0.00474
Nuclear contribution   :     -0.93171       1.07198      -0.00601
                        -----------------------------------------
Total Dipole Moment    :     -0.46976      -0.35438      -0.00127
                        -----------------------------------------
Magnitude (a.u.)       :      0.58844
Magnitude (Debye)      :      1.49570

                             ****ORCA TERMINATED NORMALLY****
TOTAL RUN TIME: 0 days 0 hours 0 minutes 6 seconds 540 msec
