                         Program Version 3.0.3 - RELEASE   -
|  1> ! RI PBE def2-SVP def2-SVP/J NBO PAL2
|  2> % maxcore 2000
|  3> % output
|  4>     # printlevel mini
|  5>     print[ P_Basis ] 0
|  6>     print[ P_SCFInfo ] 1
|  7>     print[ P_SCFIterInfo ] 1
|  8>     print[ P_OrbEn ] 0
|  9>     print[ P_Cartesian ] 0
| 10> end
| 11> *xyz 0 1
| 12>  C        0.8040960000     0.1848990000    -0.0776270000
| 13>  C        2.2821580000     0.0335610000    -0.0736180000
| 14>  C        3.2457030000     0.9845800000    -0.0741980000
| 15>  N        4.5512750000     0.5704070000    -0.0698030000
| 16>  C        4.6106420000    -0.7233890000    -0.0657510000
| 17>  N        5.7693320000    -1.4260430000    -0.0609140000
| 18>  S        3.0616980000    -1.5208790000    -0.0670210000
| 19>  H        0.5516650000     1.2469830000    -0.0813970000
| 20>  H        0.3403990000    -0.2654130000     0.8049080000
| 21>  H        0.3446490000    -0.2706660000    -0.9596900000
| 22>  H        3.0343560000     2.0473360000    -0.0779220000
| 23>  H        6.6316120000    -0.9137860000    -0.0599390000
| 24>  H        5.7849150000    -2.4258910000    -0.0572380000
| 25> *
| 26>
| 27>                          ****END OF INPUT****
 Total Charge           Charge          ....    0
 Multiplicity           Mult            ....    1
 Number of Electrons    NEL             ....   60
 Basis Dimension        Dim             ....  132

MULLIKEN ATOMIC CHARGES
-----------------------
   0 C :    0.083088
   1 C :   -0.238310
   2 C :    0.059702
   3 N :   -0.124597
   4 C :   -0.103579
   5 N :   -0.024866
   6 S :    0.033048
   7 H :    0.024553
   8 H :    0.035532
   9 H :    0.035459
  10 H :   -0.020129
  11 H :    0.123913
  12 H :    0.116186
Sum of atomic charges:   -0.0000000

LOEWDIN ATOMIC CHARGES
----------------------
   0 C :   -0.067405
   1 C :   -0.226080
   2 C :   -0.052558
   3 N :   -0.154940
   4 C :   -0.128181
   5 N :    0.001528
   6 S :    0.341345
   7 H :    0.041567
   8 H :    0.035414
   9 H :    0.035402
  10 H :    0.020212
  11 H :    0.080612
  12 H :    0.073084

  Mayer bond orders larger than 0.1
B(  0-C ,  1-C ) :   1.1055 B(  0-C ,  7-H ) :   0.9480 B(  0-C ,  8-H ) :   0.9446
B(  0-C ,  9-H ) :   0.9446 B(  1-C ,  2-C ) :   1.6051 B(  1-C ,  6-S ) :   1.0765
B(  2-C ,  3-N ) :   1.3089 B(  2-C , 10-H ) :   0.9826 B(  3-N ,  4-C ) :   1.6408
B(  4-C ,  5-N ) :   1.2511 B(  4-C ,  6-S ) :   1.0740 B(  5-N , 11-H ) :   0.9419
B(  5-N , 12-H ) :   0.9435

FINAL SINGLE POINT ENERGY      -662.920802409184

DIPOLE MOMENT
-------------
                                X             Y             Z
Electronic contribution:      3.78618      -2.91827       0.01771
Nuclear contribution   :     -3.59167       2.22499      -0.01453
                        -----------------------------------------
Total Dipole Moment    :      0.19451      -0.69328       0.00317
                        -----------------------------------------
Magnitude (a.u.)       :      0.72005
Magnitude (Debye)      :      1.83023

                             ****ORCA TERMINATED NORMALLY****
TOTAL RUN TIME: 0 days 0 hours 0 minutes 6 seconds 416 msec
