                         Program Version 3.0.3 - RELEASE   -
|  1> ! RI PBE def2-SVP def2-SVP/J NBO PAL2
|  2> % maxcore 2000
|  3> % output
|  4>     # printlevel mini
|  5>     print[ P_Basis ] 0
|  6>     print[ P_SCFInfo ] 1
|  7>     print[ P_SCFIterInfo ] 1
|  8>     print[ P_OrbEn ] 0
|  9>     print[ P_Cartesian ] 0
| 10> end
| 11> *xyz 0 1
| 12>  C        1.0635570000    -0.0944980000     0.1680800000
| 13>  C        2.3523210000    -0.0077140000    -0.1466450000
| 14>  C        3.2016190000     1.2426030000    -0.2315200000
| 15>  N        4.4861100000     0.7015220000    -0.6097010000
| 16>  C        4.4851150000    -0.6393260000    -0.7470810000
| 17>  S        5.7464190000    -1.6113540000    -1.1638370000
| 18>  N        3.2105320000    -1.0450410000    -0.4687390000
| 19>  H        0.4973410000     0.7962070000     0.4017660000
| 20>  H        0.5483160000    -1.0455500000     0.1997740000
| 21>  H        3.2419870000     1.7626490000     0.7310670000
| 22>  H        2.8118720000     1.9385370000    -0.9814710000
| 23>  H        5.3219100000     1.2330330000    -0.7650800000
| 24>  H        2.9626000000    -2.0174780000    -0.5064220000
| 25> *
| 26>
| 27>                          ****END OF INPUT****
 Total Charge           Charge          ....    0
 Multiplicity           Mult            ....    1
 Number of Electrons    NEL             ....   60
 Basis Dimension        Dim             ....  132

MULLIKEN ATOMIC CHARGES
-----------------------
   0 C :   -0.072562
   1 C :   -0.084734
   2 C :    0.223331
   3 N :   -0.170866
   4 C :    0.054533
   5 S :   -0.259955
   6 N :   -0.052880
   7 H :    0.011277
   8 H :    0.014005
   9 H :    0.047836
  10 H :    0.051087
  11 H :    0.123169
  12 H :    0.115759
Sum of atomic charges:   -0.0000000

LOEWDIN ATOMIC CHARGES
----------------------
   0 C :   -0.135902
   1 C :    0.002259
   2 C :    0.042467
   3 N :    0.005059
   4 C :   -0.127765
   5 S :   -0.132745
   6 N :    0.047351
   7 H :    0.029980
   8 H :    0.027441
   9 H :    0.037286
  10 H :    0.037666
  11 H :    0.080064
  12 H :    0.086838

  Mayer bond orders larger than 0.1
B(  0-C ,  1-C ) :   1.9063 B(  0-C ,  7-H ) :   0.9231 B(  0-C ,  8-H ) :   0.9317
B(  1-C ,  2-C ) :   0.9872 B(  1-C ,  6-N ) :   1.1481 B(  2-C ,  3-N ) :   1.0097
B(  2-C ,  9-H ) :   0.9173 B(  2-C , 10-H ) :   0.9179 B(  3-N ,  4-C ) :   1.2004
B(  3-N , 11-H ) :   0.9302 B(  4-C ,  5-S ) :   1.6405 B(  4-C ,  6-N ) :   1.1128
B(  6-N , 12-H ) :   0.9279

FINAL SINGLE POINT ENERGY      -662.918124910858

DIPOLE MOMENT
-------------
                                X             Y             Z
Electronic contribution:      6.33241      -3.76169      -1.97591
Nuclear contribution   :     -7.36063       4.89482       2.35122
                        -----------------------------------------
Total Dipole Moment    :     -1.02822       1.13313       0.37532
                        -----------------------------------------
Magnitude (a.u.)       :      1.57546
Magnitude (Debye)      :      4.00451

                             ****ORCA TERMINATED NORMALLY****
TOTAL RUN TIME: 0 days 0 hours 0 minutes 7 seconds 2 msec
