                         Program Version 3.0.3 - RELEASE   -
|  1> ! RI PBE def2-SVP def2-SVP/J NBO PAL2
|  2> % maxcore 2000
|  3> % output
|  4>     # printlevel mini
|  5>     print[ P_Basis ] 0
|  6>     print[ P_SCFInfo ] 1
|  7>     print[ P_SCFIterInfo ] 1
|  8>     print[ P_OrbEn ] 0
|  9>     print[ P_Cartesian ] 0
| 10> end
| 11> *xyz 0 1
| 12>  C        1.0285120000     0.0780770000     0.0467060000
| 13>  C        2.5397110000     0.0542980000     0.0205080000
| 14>  C        3.2058690000     1.2366540000     0.7335350000
| 15>  N        4.4329660000     0.6318420000     1.2046050000
| 16>  C        4.3024660000    -0.7137410000     1.3399170000
| 17>  S        5.3765100000    -1.7380950000     2.0600730000
| 18>  N        3.1167550000    -1.0511570000     0.7679850000
| 19>  H        0.6523070000     0.9576420000    -0.4813020000
| 20>  H        0.6620450000     0.1029910000     1.0750070000
| 21>  H        0.6130870000    -0.8042830000    -0.4451230000
| 22>  H        2.8888420000     0.0231740000    -1.0222580000
| 23>  H        2.5769120000     1.5833440000     1.5653200000
| 24>  H        3.3929340000     2.0750220000     0.0608870000
| 25>  H        5.0909550000     1.1074170000     1.7968990000
| 26>  H        2.9739180000    -2.0127860000     0.5106510000
| 27> *
| 28>
| 29>                          ****END OF INPUT****
 Total Charge           Charge          ....    0
 Multiplicity           Mult            ....    1
 Number of Electrons    NEL             ....   62
 Basis Dimension        Dim             ....  142

MULLIKEN ATOMIC CHARGES
-----------------------
   0 C :    0.031937
   1 C :   -0.053239
   2 C :    0.172773
   3 N :   -0.164511
   4 C :    0.043488
   5 S :   -0.281023
   6 N :   -0.144904
   7 H :    0.031015
   8 H :    0.028401
   9 H :    0.030203
  10 H :    0.024856
  11 H :    0.015977
  12 H :    0.026142
  13 H :    0.120988
  14 H :    0.117898
Sum of atomic charges:   -0.0000000

LOEWDIN ATOMIC CHARGES
----------------------
   0 C :   -0.063316
   1 C :    0.016741
   2 C :    0.033785
   3 N :   -0.007379
   4 C :   -0.132177
   5 S :   -0.153950
   6 N :   -0.006313
   7 H :    0.034879
   8 H :    0.030052
   9 H :    0.032565
  10 H :    0.020779
  11 H :    0.018309
  12 H :    0.026866
  13 H :    0.075021
  14 H :    0.074140

  Mayer bond orders larger than 0.1
B(  0-C ,  1-C ) :   1.1020 B(  0-C ,  7-H ) :   0.9559 B(  0-C ,  8-H ) :   0.9505
B(  0-C ,  9-H ) :   0.9583 B(  1-C ,  2-C ) :   1.0601 B(  1-C ,  6-N ) :   0.9828
B(  1-C , 10-H ) :   0.9050 B(  2-C ,  3-N ) :   1.0205 B(  2-C , 11-H ) :   0.9201
B(  2-C , 12-H ) :   0.9351 B(  3-N ,  4-C ) :   1.1758 B(  3-N , 13-H ) :   0.9300
B(  4-C ,  5-S ) :   1.6275 B(  4-C ,  6-N ) :   1.1717 B(  6-N , 14-H ) :   0.9322

FINAL SINGLE POINT ENERGY      -664.129016692036

DIPOLE MOMENT
-------------
                                X             Y             Z
Electronic contribution:      8.76111      -4.90938       4.15564
Nuclear contribution   :    -10.15078       6.15848      -5.07073
                        -----------------------------------------
Total Dipole Moment    :     -1.38967       1.24910      -0.91509
                        -----------------------------------------
Magnitude (a.u.)       :      2.08058
Magnitude (Debye)      :      5.28842

                             ****ORCA TERMINATED NORMALLY****
TOTAL RUN TIME: 0 days 0 hours 0 minutes 7 seconds 142 msec
