                         Program Version 3.0.3 - RELEASE   -
|  1> ! RI PBE def2-SVP def2-SVP/J NBO PAL2
|  2> % maxcore 2000
|  3> % output
|  4>     # printlevel mini
|  5>     print[ P_Basis ] 0
|  6>     print[ P_SCFInfo ] 1
|  7>     print[ P_SCFIterInfo ] 1
|  8>     print[ P_OrbEn ] 0
|  9>     print[ P_Cartesian ] 0
| 10> end
| 11> *xyz 0 1
| 12>  C        0.9252290000     0.1880780000    -0.0046370000
| 13>  C        2.4057160000     0.0886840000     0.0014540000
| 14>  C        3.3066560000     1.0768340000     0.0038580000
| 15>  N        4.6218150000     0.6512900000     0.0096930000
| 16>  C        4.8223540000    -0.7127300000     0.0121880000
| 17>  N        5.8924420000    -1.3951930000     0.0173470000
| 18>  S        3.2202730000    -1.4637400000     0.0066550000
| 19>  H        0.6214100000     1.2365120000    -0.0071450000
| 20>  H        0.4859740000    -0.2899650000     0.8757400000
| 21>  H        0.4930860000    -0.2921210000    -0.8873580000
| 22>  H        3.0939410000     2.1366590000     0.0016880000
| 23>  H        5.4018360000     1.2847780000     0.0120560000
| 24>  H        6.7220490000    -0.8077850000     0.0199690000
| 25> *
| 26>
| 27>                          ****END OF INPUT****
 Total Charge           Charge          ....    0
 Multiplicity           Mult            ....    1
 Number of Electrons    NEL             ....   60
 Basis Dimension        Dim             ....  132

MULLIKEN ATOMIC CHARGES
-----------------------
   0 C :    0.083234
   1 C :   -0.249443
   2 C :    0.097783
   3 N :   -0.074103
   4 C :   -0.102794
   5 N :   -0.111421
   6 S :    0.062498
   7 H :    0.021479
   8 H :    0.041371
   9 H :    0.041257
  10 H :   -0.001277
  11 H :    0.112697
  12 H :    0.078719
Sum of atomic charges:   -0.0000000

LOEWDIN ATOMIC CHARGES
----------------------
   0 C :   -0.064211
   1 C :   -0.211619
   2 C :   -0.041134
   3 N :    0.018712
   4 C :   -0.126163
   5 N :   -0.201482
   6 S :    0.356947
   7 H :    0.039131
   8 H :    0.038675
   9 H :    0.038655
  10 H :    0.026821
  11 H :    0.080260
  12 H :    0.045407

  Mayer bond orders larger than 0.1
B(  0-C ,  1-C ) :   1.1198 B(  0-C ,  7-H ) :   0.9508 B(  0-C ,  8-H ) :   0.9429
B(  0-C ,  9-H ) :   0.9429 B(  1-C ,  2-C ) :   1.6780 B(  1-C ,  6-S ) :   1.0743
B(  2-C ,  3-N ) :   1.1027 B(  2-C , 10-H ) :   0.9723 B(  3-N ,  4-C ) :   1.1029
B(  3-N , 11-H ) :   0.9288 B(  4-C ,  5-N ) :   1.9653 B(  4-C ,  6-S ) :   0.9998
B(  5-N ,  6-S ) :   0.1106 B(  5-N , 12-H ) :   0.9255

FINAL SINGLE POINT ENERGY      -662.905233154719

DIPOLE MOMENT
-------------
                                X             Y             Z
Electronic contribution:      3.86223      -3.75786       0.02024
Nuclear contribution   :     -4.16764       5.38264      -0.02345
                        -----------------------------------------
Total Dipole Moment    :     -0.30541       1.62478      -0.00322
                        -----------------------------------------
Magnitude (a.u.)       :      1.65323
Magnitude (Debye)      :      4.20218

                             ****ORCA TERMINATED NORMALLY****
TOTAL RUN TIME: 0 days 0 hours 0 minutes 6 seconds 479 msec
