                         Program Version 3.0.3 - RELEASE   -
|  1> ! RI PBE def2-SVP def2-SVP/J NBO PAL2
|  2> % maxcore 2000
|  3> % output
|  4>     # printlevel mini
|  5>     print[ P_Basis ] 0
|  6>     print[ P_SCFInfo ] 1
|  7>     print[ P_SCFIterInfo ] 1
|  8>     print[ P_OrbEn ] 0
|  9>     print[ P_Cartesian ] 0
| 10> end
| 11> *xyz 0 1
| 12>  C        0.8526370000     0.0061000000     0.0451530000
| 13>  C        2.3347930000    -0.0785730000     0.0502380000
| 14>  C        3.2214440000     0.9254710000     0.0522160000
| 15>  N        4.5413760000     0.5221710000     0.0570690000
| 16>  C        4.7756440000    -0.8273510000     0.0592230000
| 17>  O        5.8463470000    -1.3768760000     0.0633640000
| 18>  S        3.1702420000    -1.6140140000     0.0545820000
| 19>  H        0.5390510000     1.0517880000     0.0430620000
| 20>  H        0.4195820000    -0.4760460000     0.9259400000
| 21>  H        0.4255330000    -0.4777890000    -0.8375810000
| 22>  H        2.9905210000     1.9811450000     0.0503720000
| 23>  H        5.3250300000     1.1538840000     0.0590710000
| 24> *
| 25>
| 26>                          ****END OF INPUT****
 Total Charge           Charge          ....    0
 Multiplicity           Mult            ....    1
 Number of Electrons    NEL             ....   60
 Basis Dimension        Dim             ....  127

MULLIKEN ATOMIC CHARGES
-----------------------
   0 C :    0.085835
   1 C :   -0.262527
   2 C :    0.108291
   3 N :   -0.080446
   4 C :    0.061044
   5 O :   -0.176726
   6 S :    0.020390
   7 H :    0.022912
   8 H :    0.044027
   9 H :    0.043938
  10 H :    0.004024
  11 H :    0.129239
Sum of atomic charges:    0.0000000

LOEWDIN ATOMIC CHARGES
----------------------
   0 C :   -0.063453
   1 C :   -0.210005
   2 C :   -0.039395
   3 N :    0.034156
   4 C :   -0.110981
   5 O :   -0.179696
   6 S :    0.330304
   7 H :    0.039683
   8 H :    0.040252
   9 H :    0.040236
  10 H :    0.029215
  11 H :    0.089682

  Mayer bond orders larger than 0.1
B(  0-C ,  1-C ) :   1.1125 B(  0-C ,  7-H ) :   0.9500 B(  0-C ,  8-H ) :   0.9441
B(  0-C ,  9-H ) :   0.9441 B(  1-C ,  2-C ) :   1.6670 B(  1-C ,  6-S ) :   1.0973
B(  2-C ,  3-N ) :   1.1132 B(  2-C , 10-H ) :   0.9759 B(  3-N ,  4-C ) :   1.1192
B(  3-N , 11-H ) :   0.9211 B(  4-C ,  5-O ) :   2.0842 B(  4-C ,  6-S ) :   0.9802
B(  5-O ,  6-S ) :   0.1520

FINAL SINGLE POINT ENERGY      -682.781731895284

DIPOLE MOMENT
-------------
                                X             Y             Z
Electronic contribution:      6.34096      -4.23212       0.02560
Nuclear contribution   :     -7.26295       5.61970      -0.03012
                        -----------------------------------------
Total Dipole Moment    :     -0.92199       1.38758      -0.00452
                        -----------------------------------------
Magnitude (a.u.)       :      1.66597
Magnitude (Debye)      :      4.23457

                             ****ORCA TERMINATED NORMALLY****
TOTAL RUN TIME: 0 days 0 hours 0 minutes 6 seconds 371 msec
