                         Program Version 3.0.3 - RELEASE   -
|  1> ! RI PBE def2-SVP def2-SVP/J NBO PAL2
|  2> % maxcore 2000
|  3> % output
|  4>     # printlevel mini
|  5>     print[ P_Basis ] 0
|  6>     print[ P_SCFInfo ] 1
|  7>     print[ P_SCFIterInfo ] 1
|  8>     print[ P_OrbEn ] 0
|  9>     print[ P_Cartesian ] 0
| 10> end
| 11> *xyz 0 1
| 12>  C        0.9676940000    -0.0094140000    -0.0954590000
| 13>  C        2.4549020000    -0.0187020000    -0.0911080000
| 14>  C        3.2753540000     1.0547550000    -0.0872570000
| 15>  N        4.6048450000     0.7838780000    -0.0837340000
| 16>  S        4.9254610000    -0.8758410000    -0.0850080000
| 17>  C        3.1803930000    -1.2737880000    -0.0906660000
| 18>  N        2.6550350000    -2.4338050000    -0.0937700000
| 19>  H        0.5796220000     1.0105440000    -0.0952470000
| 20>  H        0.5746460000    -0.5355040000     0.7784300000
| 21>  H        0.5797870000    -0.5331850000    -0.9730290000
| 22>  H        2.9657670000     2.0921880000    -0.0867620000
| 23>  H        5.3400790000     1.4640770000    -0.0805900000
| 24>  H        3.3319070000    -3.1903130000    -0.0927980000
| 25> *
| 26>
| 27>                          ****END OF INPUT****
 Total Charge           Charge          ....    0
 Multiplicity           Mult            ....    1
 Number of Electrons    NEL             ....   60
 Basis Dimension        Dim             ....  132

MULLIKEN ATOMIC CHARGES
-----------------------
   0 C :    0.106993
   1 C :   -0.114304
   2 C :    0.113199
   3 N :   -0.256822
   4 S :    0.174136
   5 C :   -0.205773
   6 N :   -0.118529
   7 H :   -0.001410
   8 H :    0.034807
   9 H :    0.034717
  10 H :    0.002459
  11 H :    0.145070
  12 H :    0.085459
Sum of atomic charges:   -0.0000000

LOEWDIN ATOMIC CHARGES
----------------------
   0 C :   -0.044790
   1 C :   -0.123906
   2 C :   -0.005468
   3 N :   -0.109811
   4 S :    0.346415
   5 C :   -0.141475
   6 N :   -0.179160
   7 H :    0.027891
   8 H :    0.039951
   9 H :    0.039936
  10 H :    0.029649
  11 H :    0.075261
  12 H :    0.045507

  Mayer bond orders larger than 0.1
B(  0-C ,  1-C ) :   1.1347 B(  0-C ,  7-H ) :   0.9422 B(  0-C ,  8-H ) :   0.9380
B(  0-C ,  9-H ) :   0.9380 B(  1-C ,  2-C ) :   1.5727 B(  1-C ,  3-N ) :   0.1103
B(  1-C ,  5-C ) :   1.1192 B(  2-C ,  3-N ) :   1.1409 B(  2-C , 10-H ) :   0.9653
B(  3-N ,  4-S ) :   0.9638 B(  3-N , 11-H ) :   0.9352 B(  4-S ,  5-C ) :   0.9606
B(  4-S ,  6-N ) :   0.1750 B(  5-C ,  6-N ) :   1.9695 B(  6-N , 12-H ) :   0.9203

FINAL SINGLE POINT ENERGY      -662.883670639457

DIPOLE MOMENT
-------------
                                X             Y             Z
Electronic contribution:      7.64894      -1.76182       0.02013
Nuclear contribution   :     -6.81041       2.95162      -0.01595
                        -----------------------------------------
Total Dipole Moment    :      0.83853       1.18980       0.00419
                        -----------------------------------------
Magnitude (a.u.)       :      1.45560
Magnitude (Debye)      :      3.69984

                             ****ORCA TERMINATED NORMALLY****
TOTAL RUN TIME: 0 days 0 hours 0 minutes 6 seconds 808 msec
