                         Program Version 3.0.3 - RELEASE   -
|  1> ! RI PBE def2-SVP def2-SVP/J NBO PAL2
|  2> % maxcore 2000
|  3> % output
|  4>     # printlevel mini
|  5>     print[ P_Basis ] 0
|  6>     print[ P_SCFInfo ] 1
|  7>     print[ P_SCFIterInfo ] 1
|  8>     print[ P_OrbEn ] 0
|  9>     print[ P_Cartesian ] 0
| 10> end
| 11> *xyz 0 1
| 12>  C        0.9599620000     0.1194900000     0.0565940000
| 13>  C        2.4489830000     0.0805520000     0.0612670000
| 14>  C        3.2950270000     1.1412710000     0.0637110000
| 15>  N        4.6115240000     0.8485260000     0.0679360000
| 16>  S        4.9268790000    -0.8052520000     0.0692670000
| 17>  C        3.1443270000    -1.1846060000     0.0636860000
| 18>  O        2.7171150000    -2.3113400000     0.0625980000
| 19>  H        0.5930130000     1.1470970000     0.0552320000
| 20>  H        0.5532240000    -0.3917990000     0.9327430000
| 21>  H        0.5587260000    -0.3921610000    -0.8218760000
| 22>  H        3.0033330000     2.1841340000     0.0625890000
| 23>  H        5.3502870000     1.5263170000     0.0701540000
| 24> *
| 25>
| 26>                          ****END OF INPUT****
 Total Charge           Charge          ....    0
 Multiplicity           Mult            ....    1
 Number of Electrons    NEL             ....   60
 Basis Dimension        Dim             ....  127

MULLIKEN ATOMIC CHARGES
-----------------------
   0 C :    0.085110
   1 C :   -0.193444
   2 C :    0.135962
   3 N :   -0.241059
   4 S :    0.147198
   5 C :   -0.016639
   6 O :   -0.166171
   7 H :    0.005990
   8 H :    0.041623
   9 H :    0.041567
  10 H :    0.008901
  11 H :    0.150962
Sum of atomic charges:   -0.0000000

LOEWDIN ATOMIC CHARGES
----------------------
   0 C :   -0.045878
   1 C :   -0.150794
   2 C :    0.003193
   3 N :   -0.091222
   4 S :    0.341870
   5 C :   -0.112431
   6 O :   -0.168069
   7 H :    0.030733
   8 H :    0.040961
   9 H :    0.040950
  10 H :    0.031296
  11 H :    0.079389

  Mayer bond orders larger than 0.1
B(  0-C ,  1-C ) :   1.1098 B(  0-C ,  7-H ) :   0.9485 B(  0-C ,  8-H ) :   0.9468
B(  0-C ,  9-H ) :   0.9468 B(  1-C ,  2-C ) :   1.5298 B(  1-C ,  3-N ) :   0.1122
B(  1-C ,  5-C ) :   1.1054 B(  2-C ,  3-N ) :   1.1808 B(  2-C , 10-H ) :   0.9677
B(  3-N ,  4-S ) :   0.9799 B(  3-N , 11-H ) :   0.9324 B(  4-S ,  5-C ) :   0.9346
B(  4-S ,  6-O ) :   0.1824 B(  5-C ,  6-O ) :   2.1064

FINAL SINGLE POINT ENERGY      -682.753635103235

DIPOLE MOMENT
-------------
                                X             Y             Z
Electronic contribution:      7.19990      -3.80534       0.02337
Nuclear contribution   :     -6.67935       5.64216      -0.02208
                        -----------------------------------------
Total Dipole Moment    :      0.52055       1.83681       0.00129
                        -----------------------------------------
Magnitude (a.u.)       :      1.90915
Magnitude (Debye)      :      4.85268

                             ****ORCA TERMINATED NORMALLY****
TOTAL RUN TIME: 0 days 0 hours 0 minutes 6 seconds 495 msec
