                         Program Version 3.0.3 - RELEASE   -
|  1> ! RI PBE def2-SVP def2-SVP/J NBO PAL2
|  2> % maxcore 2000
|  3> % output
|  4>     # printlevel mini
|  5>     print[ P_Basis ] 0
|  6>     print[ P_SCFInfo ] 1
|  7>     print[ P_SCFIterInfo ] 1
|  8>     print[ P_OrbEn ] 0
|  9>     print[ P_Cartesian ] 0
| 10> end
| 11> *xyz 0 1
| 12>  C        0.8121580000     0.0261420000     0.0534520000
| 13>  C        2.3165340000     0.0161130000     0.0379370000
| 14>  C        3.0800270000     1.0193850000     0.9221660000
| 15>  N        4.0870090000     0.0524020000     1.4025760000
| 16>  S        3.1465230000    -1.2721220000     0.9947200000
| 17>  O        2.3341400000    -1.7083450000     2.0969490000
| 18>  O        3.8682020000    -2.2471370000     0.2424660000
| 19>  H        0.4408910000     0.9643930000    -0.3665810000
| 20>  H        0.4340210000    -0.0751750000     1.0718430000
| 21>  H        0.4073670000    -0.7909680000    -0.5459000000
| 22>  H        2.7294350000    -0.0156370000    -0.9717400000
| 23>  H        2.4377350000     1.4104940000     1.7161420000
| 24>  H        3.5393060000     1.8421180000     0.3734710000
| 25>  H        4.3873640000     0.1105270000     2.3680990000
| 26> *
| 27>
| 28>                          ****END OF INPUT****
 Total Charge           Charge          ....    0
 Multiplicity           Mult            ....    1
 Number of Electrons    NEL             ....   64
 Basis Dimension        Dim             ....  137

MULLIKEN ATOMIC CHARGES
-----------------------
   0 C :    0.066867
   1 C :   -0.290877
   2 C :    0.196975
   3 N :   -0.307191
   4 S :    0.710721
   5 O :   -0.395301
   6 O :   -0.373638
   7 H :    0.040178
   8 H :    0.041234
   9 H :    0.049797
  10 H :    0.060754
  11 H :    0.029632
  12 H :    0.040971
  13 H :    0.129879
Sum of atomic charges:   -0.0000000

LOEWDIN ATOMIC CHARGES
----------------------
   0 C :   -0.066711
   1 C :   -0.156363
   2 C :    0.015566
   3 N :   -0.226677
   4 S :    1.090627
   5 O :   -0.468739
   6 O :   -0.444118
   7 H :    0.039456
   8 H :    0.034135
   9 H :    0.041196
  10 H :    0.037512
  11 H :    0.018528
  12 H :    0.028085
  13 H :    0.057504

  Mayer bond orders larger than 0.1
B(  0-C ,  1-C ) :   1.0692 B(  0-C ,  7-H ) :   0.9536 B(  0-C ,  8-H ) :   0.9491
B(  0-C ,  9-H ) :   0.9583 B(  1-C ,  2-C ) :   1.0230 B(  1-C ,  4-S ) :   0.8367
B(  1-C , 10-H ) :   0.8935 B(  2-C ,  3-N ) :   1.0075 B(  2-C , 11-H ) :   0.9328
B(  2-C , 12-H ) :   0.9328 B(  3-N ,  4-S ) :   0.9751 B(  3-N , 13-H ) :   0.9264
B(  4-S ,  5-O ) :   1.7352 B(  4-S ,  6-O ) :   1.7942

FINAL SINGLE POINT ENERGY      -720.923697074473

DIPOLE MOMENT
-------------
                                X             Y             Z
Electronic contribution:      4.87119      -6.29349       2.10881
Nuclear contribution   :     -5.28497       7.93757      -2.25329
                        -----------------------------------------
Total Dipole Moment    :     -0.41378       1.64408      -0.14448
                        -----------------------------------------
Magnitude (a.u.)       :      1.70150
Magnitude (Debye)      :      4.32486

                             ****ORCA TERMINATED NORMALLY****
TOTAL RUN TIME: 0 days 0 hours 0 minutes 6 seconds 990 msec
