                         Program Version 3.0.3 - RELEASE   -
|  1> ! RI PBE def2-SVP def2-SVP/J NBO PAL2
|  2> % maxcore 2000
|  3> % output
|  4>     # printlevel mini
|  5>     print[ P_Basis ] 0
|  6>     print[ P_SCFInfo ] 1
|  7>     print[ P_SCFIterInfo ] 1
|  8>     print[ P_OrbEn ] 0
|  9>     print[ P_Cartesian ] 0
| 10> end
| 11> *xyz 0 1
| 12>  C        0.9679290000    -0.0230750000    -0.0402600000
| 13>  C        2.4568720000     0.0229340000    -0.0451900000
| 14>  C        3.2989370000     1.1085840000    -0.0425800000
| 15>  C        2.9061550000     2.5495470000    -0.0339240000
| 16>  C        4.6478200000     0.6641370000    -0.0495290000
| 17>  N        4.8614860000    -0.6273550000    -0.0567250000
| 18>  S        3.4130270000    -1.3929680000    -0.0556990000
| 19>  H        0.5485650000     0.9832520000    -0.0343420000
| 20>  H        0.5873070000    -0.5473630000     0.8398190000
| 21>  H        0.5812290000    -0.5395240000    -0.9223170000
| 22>  H        1.8236170000     2.6772180000    -0.0289710000
| 23>  H        3.2952250000     3.0698570000    -0.9133430000
| 24>  H        3.3022460000     3.0611700000     0.8474500000
| 25>  H        5.5058730000     1.3302860000    -0.0490980000
| 26> *
| 27>
| 28>                          ****END OF INPUT****
 Total Charge           Charge          ....    0
 Multiplicity           Mult            ....    1
 Number of Electrons    NEL             ....   60
 Basis Dimension        Dim             ....  137

MULLIKEN ATOMIC CHARGES
-----------------------
   0 C :    0.090491
   1 C :   -0.276653
   2 C :   -0.123457
   3 C :    0.076467
   4 C :    0.067711
   5 N :   -0.279198
   6 S :    0.251419
   7 H :    0.021494
   8 H :    0.044785
   9 H :    0.044698
  10 H :    0.011783
  11 H :    0.037077
  12 H :    0.036839
  13 H :   -0.003456
Sum of atomic charges:   -0.0000000

LOEWDIN ATOMIC CHARGES
----------------------
   0 C :   -0.068290
   1 C :   -0.204235
   2 C :   -0.106624
   3 C :   -0.054779
   4 C :   -0.041093
   5 N :   -0.266855
   6 S :    0.484839
   7 H :    0.037238
   8 H :    0.043045
   9 H :    0.043025
  10 H :    0.030370
  11 H :    0.040980
  12 H :    0.040930
  13 H :    0.021449

  Mayer bond orders larger than 0.1
B(  0-C ,  1-C ) :   1.0932 B(  0-C ,  7-H ) :   0.9416 B(  0-C ,  8-H ) :   0.9424
B(  0-C ,  9-H ) :   0.9424 B(  1-C ,  2-C ) :   1.5508 B(  1-C ,  5-N ) :   0.1458
B(  1-C ,  6-S ) :   1.1514 B(  2-C ,  3-C ) :   1.1170 B(  2-C ,  4-C ) :   1.2330
B(  3-C , 10-H ) :   0.9440 B(  3-C , 11-H ) :   0.9419 B(  3-C , 12-H ) :   0.9419
B(  4-C ,  5-N ) :   1.6162 B(  4-C , 13-H ) :   0.9771 B(  5-N ,  6-S ) :   1.1942

FINAL SINGLE POINT ENERGY      -646.883331224857

DIPOLE MOMENT
-------------
                                X             Y             Z
Electronic contribution:      5.52511      -8.25630      -0.06100
Nuclear contribution   :     -6.48594       8.95516       0.06787
                        -----------------------------------------
Total Dipole Moment    :     -0.96082       0.69886       0.00687
                        -----------------------------------------
Magnitude (a.u.)       :      1.18812
Magnitude (Debye)      :      3.01997

                             ****ORCA TERMINATED NORMALLY****
TOTAL RUN TIME: 0 days 0 hours 0 minutes 6 seconds 427 msec
