                         Program Version 3.0.3 - RELEASE   -
|  1> ! RI PBE def2-SVP def2-SVP/J NBO PAL2
|  2> % maxcore 2000
|  3> % output
|  4>     # printlevel mini
|  5>     print[ P_Basis ] 0
|  6>     print[ P_SCFInfo ] 1
|  7>     print[ P_SCFIterInfo ] 1
|  8>     print[ P_OrbEn ] 0
|  9>     print[ P_Cartesian ] 0
| 10> end
| 11> *xyz 0 1
| 12>  C        0.9961970000    -0.0489380000     0.0856730000
| 13>  C        2.4879280000     0.0106720000     0.0864110000
| 14>  C        3.2512250000     1.1512930000     0.0884340000
| 15>  O        2.8737740000     2.4391520000     0.0901790000
| 16>  S        4.9126380000     0.7392560000     0.0885480000
| 17>  N        4.6492290000    -0.8841540000     0.0860270000
| 18>  C        3.3587030000    -1.1066340000     0.0851340000
| 19>  H        0.5400060000     0.9457520000     0.0869420000
| 20>  H        0.6142860000    -0.5705830000     0.9670230000
| 21>  H        0.6150560000    -0.5679790000    -0.7975450000
| 22>  H        1.9114930000     2.4852140000     0.0898280000
| 23>  H        3.0160850000    -2.1376500000     0.0834570000
| 24> *
| 25>
| 26>                          ****END OF INPUT****
 Total Charge           Charge          ....    0
 Multiplicity           Mult            ....    1
 Number of Electrons    NEL             ....   60
 Basis Dimension        Dim             ....  127

MULLIKEN ATOMIC CHARGES
-----------------------
   0 C :    0.067348
   1 C :   -0.147671
   2 C :   -0.067465
   3 O :   -0.130361
   4 S :    0.248940
   5 N :   -0.298984
   6 C :    0.073530
   7 H :   -0.011166
   8 H :    0.046871
   9 H :    0.046828
  10 H :    0.172079
  11 H :    0.000051
Sum of atomic charges:   -0.0000000

LOEWDIN ATOMIC CHARGES
----------------------
   0 C :   -0.054036
   1 C :   -0.162034
   2 C :   -0.143690
   3 O :   -0.019814
   4 S :    0.474678
   5 N :   -0.279200
   6 C :   -0.035380
   7 H :    0.021292
   8 H :    0.043031
   9 H :    0.043025
  10 H :    0.090529
  11 H :    0.021598

  Mayer bond orders larger than 0.1
B(  0-C ,  1-C ) :   1.1000 B(  0-C ,  7-H ) :   0.9396 B(  0-C ,  8-H ) :   0.9459
B(  0-C ,  9-H ) :   0.9459 B(  1-C ,  2-C ) :   1.4350 B(  1-C ,  6-C ) :   1.2373
B(  2-C ,  3-O ) :   1.2318 B(  2-C ,  4-S ) :   1.1314 B(  2-C ,  5-N ) :   0.1318
B(  3-O , 10-H ) :   0.9555 B(  4-S ,  5-N ) :   1.1725 B(  5-N ,  6-C ) :   1.6116
B(  6-C , 11-H ) :   0.9814

FINAL SINGLE POINT ENERGY      -682.739801950311

DIPOLE MOMENT
-------------
                                X             Y             Z
Electronic contribution:      8.46918       2.34226       0.00713
Nuclear contribution   :     -9.91730      -1.90141      -0.00714
                        -----------------------------------------
Total Dipole Moment    :     -1.44812       0.44085      -0.00001
                        -----------------------------------------
Magnitude (a.u.)       :      1.51374
Magnitude (Debye)      :      3.84762

                             ****ORCA TERMINATED NORMALLY****
TOTAL RUN TIME: 0 days 0 hours 0 minutes 6 seconds 214 msec
