                         Program Version 3.0.3 - RELEASE   -
|  1> ! RI PBE def2-SVP def2-SVP/J NBO PAL2
|  2> % maxcore 2000
|  3> % output
|  4>     # printlevel mini
|  5>     print[ P_Basis ] 0
|  6>     print[ P_SCFInfo ] 1
|  7>     print[ P_SCFIterInfo ] 1
|  8>     print[ P_OrbEn ] 0
|  9>     print[ P_Cartesian ] 0
| 10> end
| 11> *xyz 0 1
| 12>  C        0.8952430000     0.1217100000     0.0434780000
| 13>  C        2.4000790000     0.1128190000    -0.0036510000
| 14>  C        3.1766230000     1.1123600000     0.8610970000
| 15>  O        4.0327290000     0.1552580000     1.5399030000
| 16>  S        3.2516160000    -1.1413970000     0.9711000000
| 17>  O        2.4216520000    -1.7028310000     1.9857390000
| 18>  O        4.1467920000    -1.9727100000     0.2406820000
| 19>  H        0.5152600000     1.0436680000    -0.4035730000
| 20>  H        0.5369790000     0.0574490000     1.0717410000
| 21>  H        0.4810720000    -0.7172810000    -0.5174440000
| 22>  H        2.7915290000     0.0622020000    -1.0205210000
| 23>  H        2.5488670000     1.6297420000     1.5886950000
| 24>  H        3.7946480000     1.8186200000     0.3086630000
| 25> *
| 26>
| 27>                          ****END OF INPUT****
 Total Charge           Charge          ....    0
 Multiplicity           Mult            ....    1
 Number of Electrons    NEL             ....   64
 Basis Dimension        Dim             ....  132

MULLIKEN ATOMIC CHARGES
-----------------------
   0 C :    0.073153
   1 C :   -0.330476
   2 C :    0.285530
   3 O :   -0.391883
   4 S :    0.792508
   5 O :   -0.365943
   6 O :   -0.359025
   7 H :    0.043112
   8 H :    0.044829
   9 H :    0.053425
  10 H :    0.066277
  11 H :    0.040265
  12 H :    0.048228
Sum of atomic charges:   -0.0000000

LOEWDIN ATOMIC CHARGES
----------------------
   0 C :   -0.064880
   1 C :   -0.166435
   2 C :    0.070869
   3 O :   -0.288492
   4 S :    1.096793
   5 O :   -0.433587
   6 O :   -0.427829
   7 H :    0.040880
   8 H :    0.036151
   9 H :    0.042995
  10 H :    0.039987
  11 H :    0.024041
  12 H :    0.029507

  Mayer bond orders larger than 0.1
B(  0-C ,  1-C ) :   1.0533 B(  0-C ,  7-H ) :   0.9505 B(  0-C ,  8-H ) :   0.9502
B(  0-C ,  9-H ) :   0.9579 B(  1-C ,  2-C ) :   1.0200 B(  1-C ,  4-S ) :   0.8758
B(  1-C , 10-H ) :   0.9041 B(  2-C ,  3-O ) :   0.9480 B(  2-C , 11-H ) :   0.9394
B(  2-C , 12-H ) :   0.9378 B(  3-O ,  4-S ) :   0.9781 B(  4-S ,  5-O ) :   1.7989
B(  4-S ,  6-O ) :   1.8159 B(  5-O ,  6-O ) :   0.1013

FINAL SINGLE POINT ENERGY      -740.765493696466

DIPOLE MOMENT
-------------
                                X             Y             Z
Electronic contribution:      5.82861      -5.48693       2.93808
Nuclear contribution   :     -6.67385       6.99950      -3.77986
                        -----------------------------------------
Total Dipole Moment    :     -0.84525       1.51258      -0.84178
                        -----------------------------------------
Magnitude (a.u.)       :      1.92638
Magnitude (Debye)      :      4.89646

                             ****ORCA TERMINATED NORMALLY****
TOTAL RUN TIME: 0 days 0 hours 0 minutes 6 seconds 656 msec
