                         Program Version 3.0.3 - RELEASE   -
|  1> ! RI PBE def2-SVP def2-SVP/J NBO PAL2
|  2> % maxcore 2000
|  3> % output
|  4>     # printlevel mini
|  5>     print[ P_Basis ] 0
|  6>     print[ P_SCFInfo ] 1
|  7>     print[ P_SCFIterInfo ] 1
|  8>     print[ P_OrbEn ] 0
|  9>     print[ P_Cartesian ] 0
| 10> end
| 11> *xyz 0 1
| 12>  C        1.0175050000    -0.0027070000    -0.0946530000
| 13>  C        2.5099310000     0.0439930000    -0.0891320000
| 14>  C        3.2478850000     1.1918360000    -0.0832500000
| 15>  S        4.9249390000     0.8815760000    -0.0780550000
| 16>  C        4.6653880000    -0.8040690000    -0.0837150000
| 17>  C        3.3385100000    -1.1226810000    -0.0894120000
| 18>  C        2.8027500000    -2.5164080000    -0.0952620000
| 19>  H        0.5911630000     1.0010480000    -0.0934190000
| 20>  H        0.6319260000    -0.5326040000     0.7817690000
| 21>  H        0.6382800000    -0.5277450000    -0.9767540000
| 22>  H        2.8817770000     2.2079950000    -0.0817280000
| 23>  H        5.5042110000    -1.4845040000    -0.0825860000
| 24>  H        3.6100170000    -3.2496270000    -0.0943610000
| 25>  H        2.1819610000    -2.7012360000    -0.9773270000
| 26>  H        2.1755350000    -2.7061470000     0.7811950000
| 27> *
| 28>
| 29>                          ****END OF INPUT****
 Total Charge           Charge          ....    0
 Multiplicity           Mult            ....    1
 Number of Electrons    NEL             ....   60
 Basis Dimension        Dim             ....  142

MULLIKEN ATOMIC CHARGES
-----------------------
   0 C :    0.088173
   1 C :   -0.071493
   2 C :   -0.139823
   3 S :    0.086298
   4 C :   -0.143060
   5 C :   -0.075305
   6 C :    0.091846
   7 H :    0.011812
   8 H :    0.029055
   9 H :    0.028910
  10 H :    0.012613
  11 H :    0.013047
  12 H :    0.014176
  13 H :    0.026825
  14 H :    0.026927
Sum of atomic charges:   -0.0000000

LOEWDIN ATOMIC CHARGES
----------------------
   0 C :   -0.053841
   1 C :   -0.074832
   2 C :   -0.215497
   3 S :    0.435377
   4 C :   -0.216441
   5 C :   -0.074901
   6 C :   -0.054769
   7 H :    0.033491
   8 H :    0.036281
   9 H :    0.036258
  10 H :    0.021140
  11 H :    0.021463
  12 H :    0.034122
  13 H :    0.036070
  14 H :    0.036080

  Mayer bond orders larger than 0.1
B(  0-C ,  1-C ) :   1.1232 B(  0-C ,  7-H ) :   0.9443 B(  0-C ,  8-H ) :   0.9387
B(  0-C ,  9-H ) :   0.9386 B(  1-C ,  2-C ) :   1.5313 B(  1-C ,  5-C ) :   1.2854
B(  2-C ,  3-S ) :   1.1689 B(  2-C , 10-H ) :   0.9608 B(  3-S ,  4-C ) :   1.1700
B(  4-C ,  5-C ) :   1.5357 B(  4-C , 11-H ) :   0.9569 B(  5-C ,  6-C ) :   1.1295
B(  6-C , 12-H ) :   0.9423 B(  6-C , 13-H ) :   0.9361 B(  6-C , 14-H ) :   0.9362

FINAL SINGLE POINT ENERGY      -630.864506276494

DIPOLE MOMENT
-------------
                                X             Y             Z
Electronic contribution:      8.51586       6.05413       0.04783
Nuclear contribution   :     -8.87264      -6.30139      -0.04975
                        -----------------------------------------
Total Dipole Moment    :     -0.35678      -0.24726      -0.00192
                        -----------------------------------------
Magnitude (a.u.)       :      0.43409
Magnitude (Debye)      :      1.10336

                             ****ORCA TERMINATED NORMALLY****
TOTAL RUN TIME: 0 days 0 hours 0 minutes 7 seconds 279 msec
