                         Program Version 3.0.3 - RELEASE   -
|  1> ! RI PBE def2-SVP def2-SVP/J NBO PAL2
|  2> % maxcore 2000
|  3> % output
|  4>     # printlevel mini
|  5>     print[ P_Basis ] 0
|  6>     print[ P_SCFInfo ] 1
|  7>     print[ P_SCFIterInfo ] 1
|  8>     print[ P_OrbEn ] 0
|  9>     print[ P_Cartesian ] 0
| 10> end
| 11> *xyz 0 1
| 12>  C        0.9739130000    -0.1157510000    -0.0124540000
| 13>  C        2.4642240000    -0.0546320000    -0.0073340000
| 14>  C        3.2071230000     1.0887760000    -0.0024310000
| 15>  S        4.8804310000     0.7830860000     0.0025620000
| 16>  C        4.6299880000    -0.9094980000    -0.0018450000
| 17>  C        3.2958530000    -1.2219640000    -0.0069750000
| 18>  N        2.7653980000    -2.4871470000    -0.0112830000
| 19>  H        0.5395250000     0.8843290000    -0.0118920000
| 20>  H        0.5892330000    -0.6428810000     0.8679500000
| 21>  H        0.5951420000    -0.6392990000    -0.8975490000
| 22>  H        2.8370710000     2.1033650000    -0.0015450000
| 23>  H        5.4690710000    -1.5881810000    -0.0004370000
| 24>  H        3.3541070000    -3.2953810000    -0.0117220000
| 25>  H        1.7751320000    -2.6245340000    -0.0158640000
| 26> *
| 27>
| 28>                          ****END OF INPUT****
 Total Charge           Charge          ....    0
 Multiplicity           Mult            ....    1
 Number of Electrons    NEL             ....   60
 Basis Dimension        Dim             ....  137

MULLIKEN ATOMIC CHARGES
-----------------------
   0 C :    0.049196
   1 C :   -0.052819
   2 C :   -0.143093
   3 S :    0.073025
   4 C :   -0.185341
   5 C :    0.044393
   6 N :   -0.058794
   7 H :    0.013081
   8 H :    0.032026
   9 H :    0.031871
  10 H :    0.008422
  11 H :   -0.010931
  12 H :    0.102951
  13 H :    0.096013
Sum of atomic charges:   -0.0000000

LOEWDIN ATOMIC CHARGES
----------------------
   0 C :   -0.060865
   1 C :   -0.097210
   2 C :   -0.215309
   3 S :    0.422838
   4 C :   -0.279337
   5 C :   -0.029093
   6 N :   -0.012207
   7 H :    0.037282
   8 H :    0.032325
   9 H :    0.032286
  10 H :    0.020386
  11 H :    0.014954
  12 H :    0.069361
  13 H :    0.064589

  Mayer bond orders larger than 0.1
B(  0-C ,  1-C ) :   1.1075 B(  0-C ,  7-H ) :   0.9378 B(  0-C ,  8-H ) :   0.9430
B(  0-C ,  9-H ) :   0.9430 B(  1-C ,  2-C ) :   1.5219 B(  1-C ,  3-S ) :   0.1064
B(  1-C ,  5-C ) :   1.2547 B(  2-C ,  3-S ) :   1.1857 B(  2-C , 10-H ) :   0.9603
B(  3-S ,  4-C ) :   1.1141 B(  4-C ,  5-C ) :   1.4544 B(  4-C , 11-H ) :   0.9697
B(  5-C ,  6-N ) :   1.2558 B(  6-N , 12-H ) :   0.9520 B(  6-N , 13-H ) :   0.9437

FINAL SINGLE POINT ENERGY      -646.883117260522

DIPOLE MOMENT
-------------
                                X             Y             Z
Electronic contribution:      7.56274       2.98981       0.03211
Nuclear contribution   :     -8.19279      -3.73693      -0.03672
                        -----------------------------------------
Total Dipole Moment    :     -0.63004      -0.74712      -0.00461
                        -----------------------------------------
Magnitude (a.u.)       :      0.97732
Magnitude (Debye)      :      2.48416

                             ****ORCA TERMINATED NORMALLY****
TOTAL RUN TIME: 0 days 0 hours 0 minutes 6 seconds 943 msec
