                         Program Version 3.0.3 - RELEASE   -
|  1> ! RI PBE def2-SVP def2-SVP/J NBO PAL2
|  2> % maxcore 2000
|  3> % output
|  4>     # printlevel mini
|  5>     print[ P_Basis ] 0
|  6>     print[ P_SCFInfo ] 1
|  7>     print[ P_SCFIterInfo ] 1
|  8>     print[ P_OrbEn ] 0
|  9>     print[ P_Cartesian ] 0
| 10> end
| 11> *xyz 0 1
| 12>  C        0.8929580000    -0.0536090000    -0.0567840000
| 13>  C        2.3821740000     0.0087660000    -0.0524210000
| 14>  C        3.1405340000     1.1417340000    -0.0490160000
| 15>  S        4.8147720000     0.8172540000    -0.0445260000
| 16>  C        4.5474690000    -0.8716590000    -0.0471200000
| 17>  C        3.2116800000    -1.1505370000    -0.0512770000
| 18>  O        2.6310170000    -2.3772370000    -0.0542720000
| 19>  H        0.4595600000     0.9469860000    -0.0570080000
| 20>  H        0.5194780000    -0.5904910000     0.8194560000
| 21>  H        0.5245470000    -0.5886900000    -0.9362640000
| 22>  H        2.7874560000     2.1622640000    -0.0489390000
| 23>  H        5.3752720000    -1.5647750000    -0.0454750000
| 24>  H        3.3128720000    -3.0538050000    -0.0530620000
| 25> *
| 26>
| 27>                          ****END OF INPUT****
 Total Charge           Charge          ....    0
 Multiplicity           Mult            ....    1
 Number of Electrons    NEL             ....   60
 Basis Dimension        Dim             ....  132

MULLIKEN ATOMIC CHARGES
-----------------------
   0 C :    0.090450
   1 C :   -0.085222
   2 C :   -0.133102
   3 S :    0.083302
   4 C :   -0.189156
   5 C :    0.126575
   6 O :   -0.160381
   7 H :    0.008357
   8 H :    0.035736
   9 H :    0.035661
  10 H :    0.015484
  11 H :    0.002655
  12 H :    0.169643
Sum of atomic charges:   -0.0000000

LOEWDIN ATOMIC CHARGES
----------------------
   0 C :   -0.051122
   1 C :   -0.091248
   2 C :   -0.208871
   3 S :    0.432247
   4 C :   -0.280267
   5 C :   -0.011422
   6 O :   -0.032086
   7 H :    0.032716
   8 H :    0.039483
   9 H :    0.039471
  10 H :    0.022694
  11 H :    0.019053
  12 H :    0.089351

  Mayer bond orders larger than 0.1
B(  0-C ,  1-C ) :   1.1002 B(  0-C ,  7-H ) :   0.9446 B(  0-C ,  8-H ) :   0.9446
B(  0-C ,  9-H ) :   0.9445 B(  1-C ,  2-C ) :   1.5385 B(  1-C ,  3-S ) :   0.1020
B(  1-C ,  5-C ) :   1.2735 B(  2-C ,  3-S ) :   1.1751 B(  2-C , 10-H ) :   0.9633
B(  3-S ,  4-C ) :   1.1261 B(  4-C ,  5-C ) :   1.4615 B(  4-C , 11-H ) :   0.9680
B(  5-C ,  6-O ) :   1.2402 B(  6-O , 12-H ) :   0.9666

FINAL SINGLE POINT ENERGY      -666.723780244474

DIPOLE MOMENT
-------------
                                X             Y             Z
Electronic contribution:      6.67852       0.89829       0.02030
Nuclear contribution   :     -6.60324      -1.31925      -0.02050
                        -----------------------------------------
Total Dipole Moment    :      0.07528      -0.42096      -0.00020
                        -----------------------------------------
Magnitude (a.u.)       :      0.42764
Magnitude (Debye)      :      1.08698

                             ****ORCA TERMINATED NORMALLY****
TOTAL RUN TIME: 0 days 0 hours 0 minutes 6 seconds 552 msec
