                         Program Version 3.0.3 - RELEASE   -
|  1> ! RI PBE def2-SVP def2-SVP/J NBO PAL2
|  2> % maxcore 2000
|  3> % output
|  4>     # printlevel mini
|  5>     print[ P_Basis ] 0
|  6>     print[ P_SCFInfo ] 1
|  7>     print[ P_SCFIterInfo ] 1
|  8>     print[ P_OrbEn ] 0
|  9>     print[ P_Cartesian ] 0
| 10> end
| 11> *xyz 0 1
| 12>  C        0.9607320000     0.1427440000     0.0219520000
| 13>  C        2.4473780000     0.0471860000     0.0287250000
| 14>  C        3.3598200000     1.0621870000     0.0331760000
| 15>  C        4.7154080000     0.6314190000     0.0392650000
| 16>  C        5.8902770000     1.5596520000     0.0449060000
| 17>  C        4.7985900000    -0.7311920000     0.0392670000
| 18>  S        3.2566380000    -1.4656160000     0.0320120000
| 19>  H        0.6593970000     1.1914150000     0.0208370000
| 20>  H        0.5178410000    -0.3324810000     0.9013150000
| 21>  H        0.5259020000    -0.3320390000    -0.8616630000
| 22>  H        3.0688000000     2.1065600000     0.0321290000
| 23>  H        5.5633400000     2.6005240000     0.0435910000
| 24>  H        6.5236150000     1.4103750000    -0.8331760000
| 25>  H        6.5154250000     1.4100320000     0.9287810000
| 26>  H        5.6892370000    -1.3423560000     0.0431720000
| 27> *
| 28>
| 29>                          ****END OF INPUT****
 Total Charge           Charge          ....    0
 Multiplicity           Mult            ....    1
 Number of Electrons    NEL             ....   60
 Basis Dimension        Dim             ....  142

MULLIKEN ATOMIC CHARGES
-----------------------
   0 C :    0.094141
   1 C :   -0.248898
   2 C :    0.030878
   3 C :   -0.064305
   4 C :    0.069863
   5 C :   -0.133832
   6 S :    0.088645
   7 H :    0.021905
   8 H :    0.038381
   9 H :    0.038232
  10 H :   -0.033443
  11 H :    0.012415
  12 H :    0.036578
  13 H :    0.036421
  14 H :    0.013020
Sum of atomic charges:   -0.0000000

LOEWDIN ATOMIC CHARGES
----------------------
   0 C :   -0.066820
   1 C :   -0.198427
   2 C :   -0.082912
   3 C :   -0.074587
   4 C :   -0.056989
   5 C :   -0.219324
   6 S :    0.429393
   7 H :    0.039410
   8 H :    0.038134
   9 H :    0.038106
  10 H :    0.024172
  11 H :    0.032043
  12 H :    0.038337
  13 H :    0.038322
  14 H :    0.021143

  Mayer bond orders larger than 0.1
B(  0-C ,  1-C ) :   1.0884 B(  0-C ,  7-H ) :   0.9505 B(  0-C ,  8-H ) :   0.9455
B(  0-C ,  9-H ) :   0.9455 B(  1-C ,  2-C ) :   1.5306 B(  1-C ,  6-S ) :   1.1729
B(  2-C ,  3-C ) :   1.2682 B(  2-C , 10-H ) :   0.9906 B(  3-C ,  4-C ) :   1.0875
B(  3-C ,  5-C ) :   1.5461 B(  4-C , 11-H ) :   0.9511 B(  4-C , 12-H ) :   0.9490
B(  4-C , 13-H ) :   0.9489 B(  5-C ,  6-S ) :   1.1470 B(  5-C , 14-H ) :   0.9725

FINAL SINGLE POINT ENERGY      -630.863349386326

DIPOLE MOMENT
-------------
                                X             Y             Z
Electronic contribution:     -0.56449      -6.59298      -0.00435
Nuclear contribution   :      0.51509       6.84918       0.00427
                        -----------------------------------------
Total Dipole Moment    :     -0.04940       0.25619      -0.00008
                        -----------------------------------------
Magnitude (a.u.)       :      0.26091
Magnitude (Debye)      :      0.66318

                             ****ORCA TERMINATED NORMALLY****
TOTAL RUN TIME: 0 days 0 hours 0 minutes 6 seconds 467 msec
