                         Program Version 3.0.3 - RELEASE   -
|  1> ! RI PBE def2-SVP def2-SVP/J NBO PAL2
|  2> % maxcore 2000
|  3> % output
|  4>     # printlevel mini
|  5>     print[ P_Basis ] 0
|  6>     print[ P_SCFInfo ] 1
|  7>     print[ P_SCFIterInfo ] 1
|  8>     print[ P_OrbEn ] 0
|  9>     print[ P_Cartesian ] 0
| 10> end
| 11> *xyz 0 1
| 12>  C        0.8901660000     0.1449470000    -0.0751470000
| 13>  C        2.3739520000     0.0312590000    -0.0723300000
| 14>  N        3.1820070000     1.0470640000    -0.0665230000
| 15>  C        4.4960080000     0.6602070000    -0.0651530000
| 16>  C        5.5679940000     1.7006890000    -0.0586590000
| 17>  C        4.6869520000    -0.6892180000    -0.0700700000
| 18>  S        3.1819010000    -1.4936720000    -0.0765540000
| 19>  H        0.6244380000     1.2013700000    -0.0717630000
| 20>  H        0.4500940000    -0.3311130000     0.8043700000
| 21>  H        0.4539410000    -0.3245040000    -0.9601150000
| 22>  H        5.1118680000     2.6898390000    -0.0560040000
| 23>  H        6.2098070000     1.6199120000    -0.9391590000
| 24>  H        6.2055870000     1.6132470000     0.8242680000
| 25>  H        5.6179750000    -1.2351170000    -0.0701800000
| 26> *
| 27>
| 28>                          ****END OF INPUT****
 Total Charge           Charge          ....    0
 Multiplicity           Mult            ....    1
 Number of Electrons    NEL             ....   60
 Basis Dimension        Dim             ....  137

MULLIKEN ATOMIC CHARGES
-----------------------
   0 C :    0.102989
   1 C :   -0.224193
   2 N :   -0.078751
   3 C :   -0.086896
   4 C :    0.080428
   5 C :   -0.111099
   6 S :    0.084088
   7 H :    0.038545
   8 H :    0.041096
   9 H :    0.040980
  10 H :    0.026079
  11 H :    0.035596
  12 H :    0.035483
  13 H :    0.015657
Sum of atomic charges:   -0.0000000

LOEWDIN ATOMIC CHARGES
----------------------
   0 C :   -0.074869
   1 C :   -0.162719
   2 N :   -0.105098
   3 C :   -0.051821
   4 C :   -0.063588
   5 C :   -0.228008
   6 S :    0.413819
   7 H :    0.046376
   8 H :    0.041732
   9 H :    0.041706
  10 H :    0.038896
  11 H :    0.039044
  12 H :    0.039044
  13 H :    0.025486

  Mayer bond orders larger than 0.1
B(  0-C ,  1-C ) :   1.0725 B(  0-C ,  7-H ) :   0.9431 B(  0-C ,  8-H ) :   0.9440
B(  0-C ,  9-H ) :   0.9440 B(  1-C ,  2-N ) :   1.6893 B(  1-C ,  6-S ) :   1.1423
B(  2-N ,  3-C ) :   1.3562 B(  2-N ,  6-S ) :   0.1206 B(  3-C ,  4-C ) :   1.0847
B(  3-C ,  5-C ) :   1.5444 B(  4-C , 10-H ) :   0.9434 B(  4-C , 11-H ) :   0.9497
B(  4-C , 12-H ) :   0.9496 B(  5-C ,  6-S ) :   1.1505 B(  5-C , 13-H ) :   0.9663

FINAL SINGLE POINT ENERGY      -646.895758783727

DIPOLE MOMENT
-------------
                                X             Y             Z
Electronic contribution:     -0.58688      -5.61347      -0.02344
Nuclear contribution   :      0.64979       5.29156       0.02239
                        -----------------------------------------
Total Dipole Moment    :      0.06290      -0.32190      -0.00105
                        -----------------------------------------
Magnitude (a.u.)       :      0.32799
Magnitude (Debye)      :      0.83369

                             ****ORCA TERMINATED NORMALLY****
TOTAL RUN TIME: 0 days 0 hours 0 minutes 6 seconds 815 msec
