                         Program Version 3.0.3 - RELEASE   -
|  1> ! RI PBE def2-SVP def2-SVP/J NBO PAL2
|  2> % maxcore 2000
|  3> % output
|  4>     # printlevel mini
|  5>     print[ P_Basis ] 0
|  6>     print[ P_SCFInfo ] 1
|  7>     print[ P_SCFIterInfo ] 1
|  8>     print[ P_OrbEn ] 0
|  9>     print[ P_Cartesian ] 0
| 10> end
| 11> *xyz 0 1
| 12>  C        1.0107760000     0.0834030000    -0.0375450000
| 13>  C        2.5029310000     0.1407330000    -0.0319180000
| 14>  C        3.2258090000     1.2918300000    -0.0308390000
| 15>  S        4.9208010000     0.9792420000    -0.0239240000
| 16>  C        4.6664840000    -0.7281590000    -0.0223970000
| 17>  N        5.7271570000    -1.5889400000    -0.0173540000
| 18>  C        3.3303730000    -1.0202190000    -0.0270600000
| 19>  H        0.5765960000     1.0840140000    -0.0405330000
| 20>  H        0.6332850000    -0.4463390000     0.8420790000
| 21>  H        0.6400170000    -0.4486740000    -0.9186220000
| 22>  H        2.8682740000     2.3097560000    -0.0336970000
| 23>  H        6.6706020000    -1.2574020000    -0.0122620000
| 24>  H        5.5699510000    -2.5773220000    -0.0147570000
| 25>  H        2.9461650000    -2.0331150000    -0.0270620000
| 26> *
| 27>
| 28>                          ****END OF INPUT****
 Total Charge           Charge          ....    0
 Multiplicity           Mult            ....    1
 Number of Electrons    NEL             ....   60
 Basis Dimension        Dim             ....  137

MULLIKEN ATOMIC CHARGES
-----------------------
   0 C :    0.075010
   1 C :   -0.059727
   2 C :   -0.137303
   3 S :    0.042650
   4 C :   -0.118847
   5 N :   -0.052397
   6 C :    0.008092
   7 H :    0.009033
   8 H :    0.027900
   9 H :    0.027878
  10 H :    0.003164
  11 H :    0.111949
  12 H :    0.112676
  13 H :   -0.050078
Sum of atomic charges:   -0.0000000

LOEWDIN ATOMIC CHARGES
----------------------
   0 C :   -0.053983
   1 C :   -0.065973
   2 C :   -0.240849
   3 S :    0.378916
   4 C :   -0.141458
   5 N :   -0.015102
   6 C :   -0.145005
   7 H :    0.031137
   8 H :    0.035088
   9 H :    0.035089
  10 H :    0.017835
  11 H :    0.069633
  12 H :    0.075817
  13 H :    0.018856

  Mayer bond orders larger than 0.1
B(  0-C ,  1-C ) :   1.1001 B(  0-C ,  7-H ) :   0.9520 B(  0-C ,  8-H ) :   0.9459
B(  0-C ,  9-H ) :   0.9458 B(  1-C ,  2-C ) :   1.5776 B(  1-C ,  6-C ) :   1.2410
B(  2-C ,  3-S ) :   1.0751 B(  2-C , 10-H ) :   0.9655 B(  3-S ,  4-C ) :   1.1359
B(  4-C ,  5-N ) :   1.2397 B(  4-C ,  6-C ) :   1.4432 B(  5-N , 11-H ) :   0.9474
B(  5-N , 12-H ) :   0.9514 B(  6-C , 13-H ) :   0.9988

FINAL SINGLE POINT ENERGY      -646.881337701175

DIPOLE MOMENT
-------------
                                X             Y             Z
Electronic contribution:      7.02961       2.67850       0.02212
Nuclear contribution   :     -6.59024      -3.36850      -0.01725
                        -----------------------------------------
Total Dipole Moment    :      0.43937      -0.68999       0.00487
                        -----------------------------------------
Magnitude (a.u.)       :      0.81802
Magnitude (Debye)      :      2.07925

                             ****ORCA TERMINATED NORMALLY****
TOTAL RUN TIME: 0 days 0 hours 0 minutes 6 seconds 578 msec
