                         Program Version 3.0.3 - RELEASE   -
|  1> ! RI PBE def2-SVP def2-SVP/J NBO PAL2
|  2> % maxcore 2000
|  3> % output
|  4>     # printlevel mini
|  5>     print[ P_Basis ] 0
|  6>     print[ P_SCFInfo ] 1
|  7>     print[ P_SCFIterInfo ] 1
|  8>     print[ P_OrbEn ] 0
|  9>     print[ P_Cartesian ] 0
| 10> end
| 11> *xyz 0 1
| 12>  C        0.9762680000    -0.0714450000    -0.0836190000
| 13>  C        2.4573580000     0.0746500000    -0.0790280000
| 14>  C        3.1367110000     1.2483220000    -0.0803000000
| 15>  S        4.8366300000     0.9467040000    -0.0735580000
| 16>  C        4.4945590000    -0.7579420000    -0.0695770000
| 17>  N        5.4847570000    -1.6815830000    -0.0634480000
| 18>  N        3.2331640000    -1.0590490000    -0.0729380000
| 19>  H        0.4823110000     0.9004150000    -0.0881690000
| 20>  H        0.6453450000    -0.6288610000     0.7965760000
| 21>  H        0.6513120000    -0.6340590000    -0.9627310000
| 22>  H        2.7504600000     2.2549530000    -0.0846730000
| 23>  H        6.4510480000    -1.4237630000    -0.0603660000
| 24>  H        5.2272970000    -2.6508430000    -0.0609600000
| 25> *
| 26>
| 27>                          ****END OF INPUT****
 Total Charge           Charge          ....    0
 Multiplicity           Mult            ....    1
 Number of Electrons    NEL             ....   60
 Basis Dimension        Dim             ....  132

MULLIKEN ATOMIC CHARGES
-----------------------
   0 C :    0.111643
   1 C :   -0.083945
   2 C :   -0.112109
   3 S :    0.024277
   4 C :   -0.104346
   5 N :   -0.025605
   6 N :   -0.126663
   7 H :    0.002335
   8 H :    0.032663
   9 H :    0.032672
  10 H :    0.005182
  11 H :    0.117762
  12 H :    0.126133
Sum of atomic charges:   -0.0000000

LOEWDIN ATOMIC CHARGES
----------------------
   0 C :   -0.057039
   1 C :   -0.046770
   2 C :   -0.247482
   3 S :    0.349873
   4 C :   -0.126620
   5 N :    0.001467
   6 N :   -0.159716
   7 H :    0.030658
   8 H :    0.039537
   9 H :    0.039539
  10 H :    0.021788
  11 H :    0.073651
  12 H :    0.081114

  Mayer bond orders larger than 0.1
B(  0-C ,  1-C ) :   1.1165 B(  0-C ,  7-H ) :   0.9441 B(  0-C ,  8-H ) :   0.9385
B(  0-C ,  9-H ) :   0.9385 B(  1-C ,  2-C ) :   1.5954 B(  1-C ,  6-N ) :   1.2882
B(  2-C ,  3-S ) :   1.0745 B(  2-C , 10-H ) :   0.9568 B(  3-S ,  4-C ) :   1.0903
B(  4-C ,  5-N ) :   1.2543 B(  4-C ,  6-N ) :   1.6189 B(  5-N , 11-H ) :   0.9431
B(  5-N , 12-H ) :   0.9399

FINAL SINGLE POINT ENERGY      -662.922784430475

DIPOLE MOMENT
-------------
                                X             Y             Z
Electronic contribution:      6.48977       1.63809       0.01687
Nuclear contribution   :     -5.84391      -1.87802      -0.01339
                        -----------------------------------------
Total Dipole Moment    :      0.64586      -0.23993       0.00348
                        -----------------------------------------
Magnitude (a.u.)       :      0.68900
Magnitude (Debye)      :      1.75129

                             ****ORCA TERMINATED NORMALLY****
TOTAL RUN TIME: 0 days 0 hours 0 minutes 6 seconds 57 msec
