                         Program Version 3.0.3 - RELEASE   -
|  1> ! RI PBE def2-SVP def2-SVP/J NBO PAL2
|  2> % maxcore 2000
|  3> % output
|  4>     # printlevel mini
|  5>     print[ P_Basis ] 0
|  6>     print[ P_SCFInfo ] 1
|  7>     print[ P_SCFIterInfo ] 1
|  8>     print[ P_OrbEn ] 0
|  9>     print[ P_Cartesian ] 0
| 10> end
| 11> *xyz 0 1
| 12>  C        0.9103180000    -0.0622900000     0.0534880000
| 13>  C        2.3852270000     0.1066960000     0.0589140000
| 14>  C        3.0845680000     1.2506830000     0.0598980000
| 15>  S        4.8028740000     0.9519850000     0.0669510000
| 16>  C        4.5540090000    -0.8062240000     0.0686090000
| 17>  N        5.3929060000    -1.7587590000     0.0732530000
| 18>  N        3.1935950000    -1.0097210000     0.0636820000
| 19>  H        0.4187280000     0.9094860000     0.0501890000
| 20>  H        0.5731650000    -0.6139720000     0.9364570000
| 21>  H        0.5799600000    -0.6165320000    -0.8304470000
| 22>  H        2.6888660000     2.2529620000     0.0568840000
| 23>  H        6.3515370000    -1.4323670000     0.0764550000
| 24>  H        2.8479570000    -1.9549380000     0.0637660000
| 25> *
| 26>
| 27>                          ****END OF INPUT****
 Total Charge           Charge          ....    0
 Multiplicity           Mult            ....    1
 Number of Electrons    NEL             ....   60
 Basis Dimension        Dim             ....  132

MULLIKEN ATOMIC CHARGES
-----------------------
   0 C :    0.084861
   1 C :   -0.007421
   2 C :   -0.144842
   3 S :    0.023021
   4 C :   -0.107934
   5 N :   -0.125719
   6 N :   -0.053591
   7 H :    0.025521
   8 H :    0.041403
   9 H :    0.041381
  10 H :    0.014163
  11 H :    0.095910
  12 H :    0.113246
Sum of atomic charges:   -0.0000000

LOEWDIN ATOMIC CHARGES
----------------------
   0 C :   -0.057031
   1 C :   -0.030472
   2 C :   -0.237360
   3 S :    0.322155
   4 C :   -0.122383
   5 N :   -0.203480
   6 N :    0.040155
   7 H :    0.043967
   8 H :    0.040507
   9 H :    0.040506
  10 H :    0.026149
  11 H :    0.051690
  12 H :    0.085598

  Mayer bond orders larger than 0.1
B(  0-C ,  1-C ) :   1.1163 B(  0-C ,  7-H ) :   0.9418 B(  0-C ,  8-H ) :   0.9385
B(  0-C ,  9-H ) :   0.9384 B(  1-C ,  2-C ) :   1.6600 B(  1-C ,  6-N ) :   1.1498
B(  2-C ,  3-S ) :   1.0519 B(  2-C , 10-H ) :   0.9617 B(  3-S ,  4-C ) :   0.9924
B(  3-S ,  5-N ) :   0.1551 B(  4-C ,  5-N ) :   1.9295 B(  4-C ,  6-N ) :   1.1071
B(  5-N , 11-H ) :   0.9210 B(  6-N , 12-H ) :   0.9244

FINAL SINGLE POINT ENERGY      -662.912669873849

DIPOLE MOMENT
-------------
                                X             Y             Z
Electronic contribution:      6.99323       1.51044       0.02464
Nuclear contribution   :     -8.06437      -1.21883      -0.02921
                        -----------------------------------------
Total Dipole Moment    :     -1.07114       0.29161      -0.00457
                        -----------------------------------------
Magnitude (a.u.)       :      1.11014
Magnitude (Debye)      :      2.82174

                             ****ORCA TERMINATED NORMALLY****
TOTAL RUN TIME: 0 days 0 hours 0 minutes 6 seconds 510 msec
