                         Program Version 3.0.3 - RELEASE   -
|  1> ! RI PBE def2-SVP def2-SVP/J NBO PAL2
|  2> % maxcore 2000
|  3> % output
|  4>     # printlevel mini
|  5>     print[ P_Basis ] 0
|  6>     print[ P_SCFInfo ] 1
|  7>     print[ P_SCFIterInfo ] 1
|  8>     print[ P_OrbEn ] 0
|  9>     print[ P_Cartesian ] 0
| 10> end
| 11> *xyz 0 1
| 12>  C        0.8986570000     0.0814910000     0.0126050000
| 13>  C        2.3907340000     0.1315440000     0.0182800000
| 14>  C        3.1191330000     1.2812100000     0.0195780000
| 15>  S        4.8103950000     0.9701190000     0.0264910000
| 16>  C        4.5399350000    -0.7331890000     0.0276820000
| 17>  O        5.5433990000    -1.6346410000     0.0326990000
| 18>  C        3.2143900000    -1.0325160000     0.0229620000
| 19>  H        0.4697480000     1.0843190000     0.0097190000
| 20>  H        0.5194320000    -0.4466320000     0.8921000000
| 21>  H        0.5262030000    -0.4488000000    -0.8684780000
| 22>  H        2.7620480000     2.2996090000     0.0168860000
| 23>  H        6.3952620000    -1.1904240000     0.0356000000
| 24>  H        2.8439730000    -2.0490820000     0.0228670000
| 25> *
| 26>
| 27>                          ****END OF INPUT****
 Total Charge           Charge          ....    0
 Multiplicity           Mult            ....    1
 Number of Electrons    NEL             ....   60
 Basis Dimension        Dim             ....  132

MULLIKEN ATOMIC CHARGES
-----------------------
   0 C :    0.075356
   1 C :   -0.065299
   2 C :   -0.132176
   3 S :    0.029815
   4 C :   -0.014975
   5 O :   -0.141467
   6 C :    0.007625
   7 H :    0.011907
   8 H :    0.033138
   9 H :    0.033102
  10 H :    0.011950
  11 H :    0.177085
  12 H :   -0.026059
Sum of atomic charges:   -0.0000000

LOEWDIN ATOMIC CHARGES
----------------------
   0 C :   -0.052528
   1 C :   -0.063766
   2 C :   -0.230617
   3 S :    0.375391
   4 C :   -0.128593
   5 O :   -0.026689
   6 C :   -0.119811
   7 H :    0.032196
   8 H :    0.037761
   9 H :    0.037757
  10 H :    0.020718
  11 H :    0.088147
  12 H :    0.030035

  Mayer bond orders larger than 0.1
B(  0-C ,  1-C ) :   1.1020 B(  0-C ,  7-H ) :   0.9531 B(  0-C ,  8-H ) :   0.9460
B(  0-C ,  9-H ) :   0.9460 B(  1-C ,  2-C ) :   1.5722 B(  1-C ,  6-C ) :   1.2352
B(  2-C ,  3-S ) :   1.0903 B(  2-C , 10-H ) :   0.9647 B(  3-S ,  4-C ) :   1.1289
B(  4-C ,  5-O ) :   1.2011 B(  4-C ,  6-C ) :   1.4751 B(  5-O , 11-H ) :   0.9582
B(  6-C , 12-H ) :   1.0072

FINAL SINGLE POINT ENERGY      -666.718588201930

DIPOLE MOMENT
-------------
                                X             Y             Z
Electronic contribution:      8.57174       0.95263       0.03165
Nuclear contribution   :     -8.36019      -0.80267      -0.03093
                        -----------------------------------------
Total Dipole Moment    :      0.21155       0.14995       0.00072
                        -----------------------------------------
Magnitude (a.u.)       :      0.25931
Magnitude (Debye)      :      0.65911

                             ****ORCA TERMINATED NORMALLY****
TOTAL RUN TIME: 0 days 0 hours 0 minutes 6 seconds 487 msec
