                         Program Version 3.0.3 - RELEASE   -
|  1> ! RI PBE def2-SVP def2-SVP/J NBO PAL2
|  2> % maxcore 2000
|  3> % output
|  4>     # printlevel mini
|  5>     print[ P_Basis ] 0
|  6>     print[ P_SCFInfo ] 1
|  7>     print[ P_SCFIterInfo ] 1
|  8>     print[ P_OrbEn ] 0
|  9>     print[ P_Cartesian ] 0
| 10> end
| 11> *xyz 0 1
| 12>  C        0.9677730000    -0.0831480000    -0.0804110000
| 13>  C        2.4468010000     0.0432560000    -0.0763510000
| 14>  C        3.1833480000     1.1645500000    -0.0754920000
| 15>  S        4.8869250000     0.8268640000    -0.0702770000
| 16>  C        4.5914970000    -0.9316050000    -0.0691970000
| 17>  O        5.4206240000    -1.8041490000    -0.0658740000
| 18>  N        3.2280650000    -1.0965710000    -0.0728830000
| 19>  H        0.5070150000     0.9038170000    -0.0827890000
| 20>  H        0.6132620000    -0.6232960000     0.8029330000
| 21>  H        0.6182780000    -0.6252130000    -0.9645780000
| 22>  H        2.8108120000     2.1761760000    -0.0776580000
| 23>  H        2.8535000000    -2.0316700000    -0.0729130000
| 24> *
| 25>
| 26>                          ****END OF INPUT****
 Total Charge           Charge          ....    0
 Multiplicity           Mult            ....    1
 Number of Electrons    NEL             ....   60
 Basis Dimension        Dim             ....  127

MULLIKEN ATOMIC CHARGES
-----------------------
   0 C :    0.085082
   1 C :   -0.015521
   2 C :   -0.142594
   3 S :    0.012792
   4 C :    0.061905
   5 O :   -0.178392
   6 N :   -0.076491
   7 H :    0.027555
   8 H :    0.043002
   9 H :    0.042983
  10 H :    0.020093
  11 H :    0.119588
Sum of atomic charges:    0.0000000

LOEWDIN ATOMIC CHARGES
----------------------
   0 C :   -0.057184
   1 C :   -0.035215
   2 C :   -0.230365
   3 S :    0.338795
   4 C :   -0.111639
   5 O :   -0.180220
   6 N :    0.033230
   7 H :    0.045052
   8 H :    0.041107
   9 H :    0.041106
  10 H :    0.028087
  11 H :    0.087245

  Mayer bond orders larger than 0.1
B(  0-C ,  1-C ) :   1.1140 B(  0-C ,  7-H ) :   0.9412 B(  0-C ,  8-H ) :   0.9394
B(  0-C ,  9-H ) :   0.9394 B(  1-C ,  2-C ) :   1.6596 B(  1-C ,  6-N ) :   1.1363
B(  2-C ,  3-S ) :   1.0782 B(  2-C , 10-H ) :   0.9630 B(  3-S ,  4-C ) :   0.9996
B(  3-S ,  5-O ) :   0.1535 B(  4-C ,  5-O ) :   2.0833 B(  4-C ,  6-N ) :   1.0978
B(  6-N , 11-H ) :   0.9241

FINAL SINGLE POINT ENERGY      -682.783090415327

DIPOLE MOMENT
-------------
                                X             Y             Z
Electronic contribution:      8.85267      -0.11904       0.02519
Nuclear contribution   :    -10.60223       0.38978      -0.03053
                        -----------------------------------------
Total Dipole Moment    :     -1.74956       0.27074      -0.00534
                        -----------------------------------------
Magnitude (a.u.)       :      1.77039
Magnitude (Debye)      :      4.49997

                             ****ORCA TERMINATED NORMALLY****
TOTAL RUN TIME: 0 days 0 hours 0 minutes 6 seconds 240 msec
