                         Program Version 3.0.3 - RELEASE   -
|  1> ! RI PBE def2-SVP def2-SVP/J NBO PAL2
|  2> % maxcore 2000
|  3> % output
|  4>     # printlevel mini
|  5>     print[ P_Basis ] 0
|  6>     print[ P_SCFInfo ] 1
|  7>     print[ P_SCFIterInfo ] 1
|  8>     print[ P_OrbEn ] 0
|  9>     print[ P_Cartesian ] 0
| 10> end
| 11> *xyz 0 1
| 12>  C        1.0067250000    -0.0467720000     0.0583970000
| 13>  C        2.4981550000    -0.0045440000     0.0619270000
| 14>  C        3.2723140000     1.1214460000     0.0670700000
| 15>  S        4.9088820000     0.6834580000     0.0694960000
| 16>  N        4.6328570000    -0.9306600000     0.0640280000
| 17>  C        3.3384150000    -1.1595960000     0.0603820000
| 18>  C        2.8332160000    -2.5626580000     0.0550150000
| 19>  H        0.5819420000     0.9573650000     0.0604010000
| 20>  H        0.6215980000    -0.5755480000     0.9353080000
| 21>  H        0.6256140000    -0.5703390000    -0.8233810000
| 22>  H        2.9438280000     2.1512240000     0.0694060000
| 23>  H        3.6698240000    -3.2593740000     0.0548800000
| 24>  H        2.2151580000    -2.7543210000    -0.8270250000
| 25>  H        2.2110610000    -2.7595790000     0.9330070000
| 26> *
| 27>
| 28>                          ****END OF INPUT****
 Total Charge           Charge          ....    0
 Multiplicity           Mult            ....    1
 Number of Electrons    NEL             ....   60
 Basis Dimension        Dim             ....  137

MULLIKEN ATOMIC CHARGES
-----------------------
   0 C :    0.090662
   1 C :   -0.110287
   2 C :   -0.120417
   3 S :    0.256465
   4 N :   -0.293741
   5 C :   -0.115072
   6 C :    0.100298
   7 H :    0.015778
   8 H :    0.034015
   9 H :    0.033903
  10 H :    0.018057
  11 H :    0.031962
  12 H :    0.029154
  13 H :    0.029223
Sum of atomic charges:   -0.0000000

LOEWDIN ATOMIC CHARGES
----------------------
   0 C :   -0.053082
   1 C :   -0.096127
   2 C :   -0.210864
   3 S :    0.494453
   4 N :   -0.277748
   5 C :   -0.052624
   6 C :   -0.061319
   7 H :    0.035219
   8 H :    0.039022
   9 H :    0.039004
  10 H :    0.025086
  11 H :    0.041686
  12 H :    0.038645
  13 H :    0.038649

  Mayer bond orders larger than 0.1
B(  0-C ,  1-C ) :   1.1208 B(  0-C ,  7-H ) :   0.9447 B(  0-C ,  8-H ) :   0.9394
B(  0-C ,  9-H ) :   0.9393 B(  1-C ,  2-C ) :   1.5419 B(  1-C ,  5-C ) :   1.2171
B(  2-C ,  3-S ) :   1.1760 B(  2-C ,  4-N ) :   0.1315 B(  2-C , 10-H ) :   0.9532
B(  3-S ,  4-N ) :   1.1935 B(  4-N ,  5-C ) :   1.6126 B(  5-C ,  6-C ) :   1.1291
B(  6-C , 11-H ) :   0.9356 B(  6-C , 12-H ) :   0.9373 B(  6-C , 13-H ) :   0.9374

FINAL SINGLE POINT ENERGY      -646.886272753066

DIPOLE MOMENT
-------------
                                X             Y             Z
Electronic contribution:      9.67624       4.97511       0.03709
Nuclear contribution   :    -10.63704      -4.68890      -0.03837
                        -----------------------------------------
Total Dipole Moment    :     -0.96080       0.28621      -0.00128
                        -----------------------------------------
Magnitude (a.u.)       :      1.00253
Magnitude (Debye)      :      2.54822

                             ****ORCA TERMINATED NORMALLY****
TOTAL RUN TIME: 0 days 0 hours 0 minutes 6 seconds 493 msec
