                         Program Version 3.0.3 - RELEASE   -
|  1> ! RI PBE def2-SVP def2-SVP/J NBO PAL2
|  2> % maxcore 2000
|  3> % output
|  4>     # printlevel mini
|  5>     print[ P_Basis ] 0
|  6>     print[ P_SCFInfo ] 1
|  7>     print[ P_SCFIterInfo ] 1
|  8>     print[ P_OrbEn ] 0
|  9>     print[ P_Cartesian ] 0
| 10> end
| 11> *xyz 0 1
| 12>  C        0.9188630000    -0.0822250000    -0.0438980000
| 13>  C        2.4082910000    -0.0301010000    -0.0406900000
| 14>  C        3.1917100000     1.0849920000    -0.0363720000
| 15>  S        4.8298930000     0.6462790000    -0.0340230000
| 16>  N        4.5502780000    -0.9730520000    -0.0385050000
| 17>  C        3.2544690000    -1.1886360000    -0.0417020000
| 18>  N        2.7660290000    -2.4595600000    -0.0456720000
| 19>  H        0.4882190000     0.9192660000    -0.0424520000
| 20>  H        0.5341690000    -0.6079650000     0.8368760000
| 21>  H        0.5378210000    -0.6038270000    -0.9287120000
| 22>  H        2.8661290000     2.1157520000    -0.0345680000
| 23>  H        3.4055870000    -3.2307350000    -0.0467510000
| 24>  H        1.7821520000    -2.6373970000    -0.0489300000
| 25> *
| 26>
| 27>                          ****END OF INPUT****
 Total Charge           Charge          ....    0
 Multiplicity           Mult            ....    1
 Number of Electrons    NEL             ....   60
 Basis Dimension        Dim             ....  132

MULLIKEN ATOMIC CHARGES
-----------------------
   0 C :    0.052416
   1 C :   -0.106075
   2 C :   -0.119019
   3 S :    0.239001
   4 N :   -0.342757
   5 C :   -0.003865
   6 N :   -0.033995
   7 H :    0.017385
   8 H :    0.035412
   9 H :    0.035289
  10 H :    0.010981
  11 H :    0.115602
  12 H :    0.099626
Sum of atomic charges:   -0.0000000

LOEWDIN ATOMIC CHARGES
----------------------
   0 C :   -0.060352
   1 C :   -0.118833
   2 C :   -0.209660
   3 S :    0.474010
   4 N :   -0.334846
   5 C :   -0.027274
   6 N :    0.001818
   7 H :    0.038533
   8 H :    0.034641
   9 H :    0.034611
  10 H :    0.023640
  11 H :    0.075011
  12 H :    0.068702

  Mayer bond orders larger than 0.1
B(  0-C ,  1-C ) :   1.1027 B(  0-C ,  7-H ) :   0.9396 B(  0-C ,  8-H ) :   0.9439
B(  0-C ,  9-H ) :   0.9439 B(  1-C ,  2-C ) :   1.5673 B(  1-C ,  3-S ) :   0.1223
B(  1-C ,  5-C ) :   1.1614 B(  2-C ,  3-S ) :   1.1773 B(  2-C ,  4-N ) :   0.1242
B(  2-C , 10-H ) :   0.9514 B(  3-S ,  4-N ) :   1.1479 B(  4-N ,  5-C ) :   1.5298
B(  5-C ,  6-N ) :   1.2929 B(  6-N , 11-H ) :   0.9401 B(  6-N , 12-H ) :   0.9359

FINAL SINGLE POINT ENERGY      -662.912158188040

DIPOLE MOMENT
-------------
                                X             Y             Z
Electronic contribution:      8.76462       1.91819       0.02317
Nuclear contribution   :     -9.97285      -2.15981      -0.02697
                        -----------------------------------------
Total Dipole Moment    :     -1.20823      -0.24162      -0.00380
                        -----------------------------------------
Magnitude (a.u.)       :      1.23216
Magnitude (Debye)      :      3.13190

                             ****ORCA TERMINATED NORMALLY****
TOTAL RUN TIME: 0 days 0 hours 0 minutes 6 seconds 368 msec
