                         Program Version 3.0.3 - RELEASE   -
|  1> ! RI PBE def2-SVP def2-SVP/J NBO PAL2
|  2> % maxcore 2000
|  3> % output
|  4>     # printlevel mini
|  5>     print[ P_Basis ] 0
|  6>     print[ P_SCFInfo ] 1
|  7>     print[ P_SCFIterInfo ] 1
|  8>     print[ P_OrbEn ] 0
|  9>     print[ P_Cartesian ] 0
| 10> end
| 11> *xyz 0 1
| 12>  C        1.0266460000     0.0901520000    -0.0135800000
| 13>  C        2.5102170000     0.1559190000    -0.0093140000
| 14>  C        3.2851760000     1.2554170000    -0.0077450000
| 15>  S        4.9688340000     0.9244820000    -0.0030250000
| 16>  N        4.6381590000    -0.7194200000    -0.0028820000
| 17>  C        3.3026820000    -1.0781650000    -0.0061300000
| 18>  O        2.9091940000    -2.2274600000    -0.0067650000
| 19>  H        0.5789340000     1.0842240000    -0.0154590000
| 20>  H        0.6680560000    -0.4582890000     0.8613750000
| 21>  H        0.6731090000    -0.4593190000    -0.8899470000
| 22>  H        2.9651230000     2.2881930000    -0.0092990000
| 23>  H        5.3720710000    -1.4080420000    -0.0005290000
| 24> *
| 25>
| 26>                          ****END OF INPUT****
 Total Charge           Charge          ....    0
 Multiplicity           Mult            ....    1
 Number of Electrons    NEL             ....   60
 Basis Dimension        Dim             ....  127

MULLIKEN ATOMIC CHARGES
-----------------------
   0 C :    0.091216
   1 C :   -0.201469
   2 C :   -0.092918
   3 S :    0.235675
   4 N :   -0.288634
   5 C :    0.168949
   6 O :   -0.188349
   7 H :    0.010970
   8 H :    0.044845
   9 H :    0.044809
  10 H :    0.032450
  11 H :    0.142457
Sum of atomic charges:   -0.0000000

LOEWDIN ATOMIC CHARGES
----------------------
   0 C :   -0.046160
   1 C :   -0.105803
   2 C :   -0.182985
   3 S :    0.434119
   4 N :   -0.130132
   5 C :   -0.002147
   6 O :   -0.196048
   7 H :    0.032139
   8 H :    0.045981
   9 H :    0.045978
  10 H :    0.030016
  11 H :    0.075042

  Mayer bond orders larger than 0.1
B(  0-C ,  1-C ) :   1.1163 B(  0-C ,  7-H ) :   0.9501 B(  0-C ,  8-H ) :   0.9397
B(  0-C ,  9-H ) :   0.9396 B(  1-C ,  2-C ) :   1.6798 B(  1-C ,  3-S ) :   0.1265
B(  1-C ,  5-C ) :   1.0051 B(  2-C ,  3-S ) :   1.1049 B(  2-C , 10-H ) :   0.9547
B(  3-S ,  4-N ) :   0.9901 B(  4-N ,  5-C ) :   1.0301 B(  4-N , 11-H ) :   0.9151
B(  5-C ,  6-O ) :   2.1358

FINAL SINGLE POINT ENERGY      -682.756767853919

DIPOLE MOMENT
-------------
                                X             Y             Z
Electronic contribution:      7.31612      -0.20910       0.02102
Nuclear contribution   :     -6.82912       1.32238      -0.02041
                        -----------------------------------------
Total Dipole Moment    :      0.48701       1.11329       0.00061
                        -----------------------------------------
Magnitude (a.u.)       :      1.21515
Magnitude (Debye)      :      3.08866

                             ****ORCA TERMINATED NORMALLY****
TOTAL RUN TIME: 0 days 0 hours 0 minutes 6 seconds 102 msec
