                         Program Version 3.0.3 - RELEASE   -
|  1> ! RI PBE def2-SVP def2-SVP/J NBO PAL2
|  2> % maxcore 2000
|  3> % output
|  4>     # printlevel mini
|  5>     print[ P_Basis ] 0
|  6>     print[ P_SCFInfo ] 1
|  7>     print[ P_SCFIterInfo ] 1
|  8>     print[ P_OrbEn ] 0
|  9>     print[ P_Cartesian ] 0
| 10> end
| 11> *xyz 0 1
| 12>  C        0.8720730000    -0.0574110000     0.1310980000
| 13>  C        2.3841160000    -0.0759550000     0.0709770000
| 14>  C        3.0962940000     1.0993110000     0.7853230000
| 15>  S        4.3299740000    -0.0520210000     1.3987980000
| 16>  O        4.5271550000    -0.0053590000     2.8182810000
| 17>  O        5.4592740000    -0.0949120000     0.5113180000
| 18>  C        3.0711840000    -1.2153580000     0.8639840000
| 19>  H        0.4691180000     0.8122400000    -0.3931450000
| 20>  H        0.5230810000    -0.0179440000     1.1666680000
| 21>  H        0.4499520000    -0.9520500000    -0.3324950000
| 22>  H        2.7212440000    -0.1149360000    -0.9665930000
| 23>  H        2.5218740000     1.4998610000     1.6222050000
| 24>  H        3.4958870000     1.8998530000     0.1659900000
| 25>  H        2.4887830000    -1.5464720000     1.7253420000
| 26>  H        3.4536120000    -2.0640460000     0.3003570000
| 27> *
| 28>
| 29>                          ****END OF INPUT****
 Total Charge           Charge          ....    0
 Multiplicity           Mult            ....    1
 Number of Electrons    NEL             ....   64
 Basis Dimension        Dim             ....  142

MULLIKEN ATOMIC CHARGES
-----------------------
   0 C :    0.047215
   1 C :   -0.338364
   2 C :    0.118463
   3 S :    0.503055
   4 O :   -0.396930
   5 O :   -0.410463
   6 C :    0.119882
   7 H :    0.037020
   8 H :    0.023860
   9 H :    0.036663
  10 H :    0.048057
  11 H :    0.039854
  12 H :    0.066356
  13 H :    0.040102
  14 H :    0.065230
Sum of atomic charges:   -0.0000000

LOEWDIN ATOMIC CHARGES
----------------------
   0 C :   -0.056629
   1 C :   -0.060901
   2 C :   -0.148790
   3 S :    1.081064
   4 O :   -0.462947
   5 O :   -0.472558
   6 C :   -0.148478
   7 H :    0.034024
   8 H :    0.027963
   9 H :    0.033970
  10 H :    0.037497
  11 H :    0.033168
  12 H :    0.034813
  13 H :    0.033152
  14 H :    0.034650

  Mayer bond orders larger than 0.1
B(  0-C ,  1-C ) :   1.0827 B(  0-C ,  7-H ) :   0.9622 B(  0-C ,  8-H ) :   0.9562
B(  0-C ,  9-H ) :   0.9621 B(  1-C ,  2-C ) :   1.0362 B(  1-C ,  6-C ) :   1.0343
B(  1-C , 10-H ) :   0.9071 B(  2-C ,  3-S ) :   0.8098 B(  2-C , 11-H ) :   0.9070
B(  2-C , 12-H ) :   0.9311 B(  3-S ,  4-O ) :   1.7525 B(  3-S ,  5-O ) :   1.7048
B(  3-S ,  6-C ) :   0.8097 B(  6-C , 13-H ) :   0.9076 B(  6-C , 14-H ) :   0.9311

FINAL SINGLE POINT ENERGY      -704.904187088557

DIPOLE MOMENT
-------------
                                X             Y             Z
Electronic contribution:      9.92285       0.02523       3.90670
Nuclear contribution   :    -11.58749      -0.03163      -4.63096
                        -----------------------------------------
Total Dipole Moment    :     -1.66464      -0.00640      -0.72427
                        -----------------------------------------
Magnitude (a.u.)       :      1.81539
Magnitude (Debye)      :      4.61434

                             ****ORCA TERMINATED NORMALLY****
TOTAL RUN TIME: 0 days 0 hours 0 minutes 6 seconds 660 msec
