                         Program Version 3.0.3 - RELEASE   -
|  1> ! RI PBE def2-SVP def2-SVP/J NBO PAL2
|  2> % maxcore 2000
|  3> % output
|  4>     # printlevel mini
|  5>     print[ P_Basis ] 0
|  6>     print[ P_SCFInfo ] 1
|  7>     print[ P_SCFIterInfo ] 1
|  8>     print[ P_OrbEn ] 0
|  9>     print[ P_Cartesian ] 0
| 10> end
| 11> *xyz 0 1
| 12>  C        1.0054190000    -0.0075280000     0.3352230000
| 13>  C        2.4182860000     0.1421290000    -0.1831580000
| 14>  C        3.2162830000     1.2944540000     0.4644100000
| 15>  S        4.1137250000     0.0491540000     1.3860870000
| 16>  O        3.5744350000    -0.1348470000     2.7036200000
| 17>  O        5.5301520000     0.0758030000     1.2181190000
| 18>  N        3.3546290000    -0.9230260000     0.2586780000
| 19>  H        0.3885010000     0.8326050000     0.0076080000
| 20>  H        0.9937610000    -0.0440620000     1.4271100000
| 21>  H        0.5495840000    -0.9235860000    -0.0486650000
| 22>  H        2.4267540000     0.2054500000    -1.2733700000
| 23>  H        2.6520000000     1.9744050000     1.0984480000
| 24>  H        3.8766530000     1.8307300000    -0.2138870000
| 25>  H        2.9616070000    -1.7916900000     0.6020770000
| 26> *
| 27>
| 28>                          ****END OF INPUT****
 Total Charge           Charge          ....    0
 Multiplicity           Mult            ....    1
 Number of Electrons    NEL             ....   64
 Basis Dimension        Dim             ....  137

MULLIKEN ATOMIC CHARGES
-----------------------
   0 C :    0.048627
   1 C :   -0.098013
   2 C :    0.015633
   3 S :    0.664169
   4 O :   -0.395807
   5 O :   -0.374556
   6 N :   -0.267276
   7 H :    0.036437
   8 H :    0.036036
   9 H :    0.037168
  10 H :    0.045979
  11 H :    0.064783
  12 H :    0.061919
  13 H :    0.124902
Sum of atomic charges:    0.0000000

LOEWDIN ATOMIC CHARGES
----------------------
   0 C :   -0.072873
   1 C :   -0.004897
   2 C :   -0.147540
   3 S :    1.095440
   4 O :   -0.469724
   5 O :   -0.444273
   6 N :   -0.221513
   7 H :    0.037154
   8 H :    0.032258
   9 H :    0.033629
  10 H :    0.028739
  11 H :    0.037734
  12 H :    0.040641
  13 H :    0.055225

  Mayer bond orders larger than 0.1
B(  0-C ,  1-C ) :   1.0712 B(  0-C ,  7-H ) :   0.9511 B(  0-C ,  8-H ) :   0.9464
B(  0-C ,  9-H ) :   0.9545 B(  1-C ,  2-C ) :   1.0504 B(  1-C ,  6-N ) :   1.0071
B(  1-C , 10-H ) :   0.9171 B(  2-C ,  3-S ) :   0.8680 B(  2-C , 11-H ) :   0.9345
B(  2-C , 12-H ) :   0.9083 B(  3-S ,  4-O ) :   1.7268 B(  3-S ,  5-O ) :   1.7953
B(  3-S ,  6-N ) :   0.9745 B(  6-N , 13-H ) :   0.9304

FINAL SINGLE POINT ENERGY      -720.922259267027

DIPOLE MOMENT
-------------
                                X             Y             Z
Electronic contribution:      8.22098      -1.30599       3.97912
Nuclear contribution   :     -9.66606       1.56962      -4.98134
                        -----------------------------------------
Total Dipole Moment    :     -1.44508       0.26363      -1.00222
                        -----------------------------------------
Magnitude (a.u.)       :      1.77826
Magnitude (Debye)      :      4.51998

                             ****ORCA TERMINATED NORMALLY****
TOTAL RUN TIME: 0 days 0 hours 0 minutes 6 seconds 746 msec
