                         Program Version 3.0.3 - RELEASE   -
|  1> ! RI PBE def2-SVP def2-SVP/J NBO PAL2
|  2> % maxcore 2000
|  3> % output
|  4>     # printlevel mini
|  5>     print[ P_Basis ] 0
|  6>     print[ P_SCFInfo ] 1
|  7>     print[ P_SCFIterInfo ] 1
|  8>     print[ P_OrbEn ] 0
|  9>     print[ P_Cartesian ] 0
| 10> end
| 11> *xyz 0 1
| 12>  C        0.9787980000    -0.0795600000     0.1442030000
| 13>  C        2.4268830000     0.1607800000    -0.1733700000
| 14>  C        3.1306330000     1.2625560000     0.6305340000
| 15>  S        4.2005530000    -0.0321910000     1.2345740000
| 16>  O        4.0013500000    -0.3490420000     2.6083360000
| 17>  O        5.5180590000     0.0251460000     0.6977600000
| 18>  O        3.2557810000    -0.9500320000     0.3069330000
| 19>  H        0.3757100000     0.7604920000    -0.2090840000
| 20>  H        0.8339720000    -0.1904950000     1.2206290000
| 21>  H        0.6273940000    -0.9867110000    -0.3496880000
| 22>  H        2.5990510000     0.2601410000    -1.2464640000
| 23>  H        2.5361160000     1.7100730000     1.4243270000
| 24>  H        3.6672970000     2.0124550000     0.0549110000
| 25> *
| 26>
| 27>                          ****END OF INPUT****
 Total Charge           Charge          ....    0
 Multiplicity           Mult            ....    1
 Number of Electrons    NEL             ....   64
 Basis Dimension        Dim             ....  132

MULLIKEN ATOMIC CHARGES
-----------------------
   0 C :    0.052988
   1 C :    0.029037
   2 C :   -0.036333
   3 S :    0.753718
   4 O :   -0.367443
   5 O :   -0.366645
   6 O :   -0.383185
   7 H :    0.039897
   8 H :    0.036137
   9 H :    0.050742
  10 H :    0.051987
  11 H :    0.065927
  12 H :    0.073173
Sum of atomic charges:    0.0000000

LOEWDIN ATOMIC CHARGES
----------------------
   0 C :   -0.066336
   1 C :    0.046623
   2 C :   -0.153316
   3 S :    1.098950
   4 O :   -0.434150
   5 O :   -0.433664
   6 O :   -0.289892
   7 H :    0.040169
   8 H :    0.037064
   9 H :    0.042650
  10 H :    0.028675
  11 H :    0.040617
  12 H :    0.042610

  Mayer bond orders larger than 0.1
B(  0-C ,  1-C ) :   1.0920 B(  0-C ,  7-H ) :   0.9506 B(  0-C ,  8-H ) :   0.9469
B(  0-C ,  9-H ) :   0.9529 B(  1-C ,  2-C ) :   1.0313 B(  1-C ,  6-O ) :   0.9307
B(  1-C , 10-H ) :   0.9220 B(  2-C ,  3-S ) :   0.9033 B(  2-C , 11-H ) :   0.9301
B(  2-C , 12-H ) :   0.9286 B(  3-S ,  4-O ) :   1.8054 B(  3-S ,  5-O ) :   1.8095
B(  3-S ,  6-O ) :   0.9824 B(  4-O ,  5-O ) :   0.1012

FINAL SINGLE POINT ENERGY      -740.766213789111

DIPOLE MOMENT
-------------
                                X             Y             Z
Electronic contribution:      8.29302      -2.38462       3.17283
Nuclear contribution   :     -9.74397       3.40518      -4.01902
                        -----------------------------------------
Total Dipole Moment    :     -1.45096       1.02056      -0.84620
                        -----------------------------------------
Magnitude (a.u.)       :      1.96542
Magnitude (Debye)      :      4.99570

                             ****ORCA TERMINATED NORMALLY****
TOTAL RUN TIME: 0 days 0 hours 0 minutes 6 seconds 612 msec
