                         Program Version 3.0.3 - RELEASE   -
|  1> ! RI PBE def2-SVP def2-SVP/J NBO PAL2
|  2> % maxcore 2000
|  3> % output
|  4>     # printlevel mini
|  5>     print[ P_Basis ] 0
|  6>     print[ P_SCFInfo ] 1
|  7>     print[ P_SCFIterInfo ] 1
|  8>     print[ P_OrbEn ] 0
|  9>     print[ P_Cartesian ] 0
| 10> end
| 11> *xyz 0 1
| 12>  C        0.9059670000     0.0630160000    -0.0501750000
| 13>  C        2.3855500000    -0.0801400000    -0.0544120000
| 14>  N        3.2294520000     0.8924630000    -0.0584240000
| 15>  C        4.5267880000     0.4604890000    -0.0616760000
| 16>  C        4.7009470000    -0.8944150000    -0.0601560000
| 17>  N        5.8581540000    -1.6190060000    -0.0625480000
| 18>  S        3.1498330000    -1.6542400000    -0.0543450000
| 19>  H        0.6693150000     1.1268770000    -0.0509610000
| 20>  H        0.4554090000    -0.3946470000     0.8347470000
| 21>  H        0.4501140000    -0.3971240000    -0.9310920000
| 22>  H        5.3333330000     1.1820510000    -0.0651870000
| 23>  H        6.7415920000    -1.1479000000    -0.0659960000
| 24>  H        5.8532450000    -2.6186140000    -0.0609950000
| 25> *
| 26>
| 27>                          ****END OF INPUT****
 Total Charge           Charge          ....    0
 Multiplicity           Mult            ....    1
 Number of Electrons    NEL             ....   60
 Basis Dimension        Dim             ....  132

MULLIKEN ATOMIC CHARGES
-----------------------
   0 C :    0.103999
   1 C :   -0.231925
   2 N :   -0.071647
   3 C :    0.020485
   4 C :   -0.105165
   5 N :   -0.059579
   6 S :    0.040234
   7 H :    0.035131
   8 H :    0.033161
   9 H :    0.033278
  10 H :   -0.032333
  11 H :    0.116809
  12 H :    0.117551
Sum of atomic charges:   -0.0000000

LOEWDIN ATOMIC CHARGES
----------------------
   0 C :   -0.076523
   1 C :   -0.178352
   2 N :   -0.089067
   3 C :   -0.121874
   4 C :   -0.159018
   5 N :   -0.010661
   6 S :    0.351011
   7 H :    0.046008
   8 H :    0.036645
   9 H :    0.036669
  10 H :    0.015177
  11 H :    0.077928
  12 H :    0.072057

  Mayer bond orders larger than 0.1
B(  0-C ,  1-C ) :   1.0848 B(  0-C ,  7-H ) :   0.9414 B(  0-C ,  8-H ) :   0.9433
B(  0-C ,  9-H ) :   0.9434 B(  1-C ,  2-N ) :   1.7695 B(  1-C ,  6-S ) :   1.0384
B(  2-N ,  3-C ) :   1.3282 B(  2-N ,  6-S ) :   0.1286 B(  3-C ,  4-C ) :   1.4576
B(  3-C , 10-H ) :   0.9899 B(  4-C ,  5-N ) :   1.2343 B(  4-C ,  6-S ) :   1.1255
B(  5-N , 11-H ) :   0.9531 B(  5-N , 12-H ) :   0.9506

FINAL SINGLE POINT ENERGY      -662.911909495515

DIPOLE MOMENT
-------------
                                X             Y             Z
Electronic contribution:      2.07069      -2.34386      -0.00279
Nuclear contribution   :     -1.31992       1.41807       0.00180
                        -----------------------------------------
Total Dipole Moment    :      0.75076      -0.92578      -0.00099
                        -----------------------------------------
Magnitude (a.u.)       :      1.19194
Magnitude (Debye)      :      3.02967

                             ****ORCA TERMINATED NORMALLY****
TOTAL RUN TIME: 0 days 0 hours 0 minutes 5 seconds 983 msec
