                         Program Version 3.0.3 - RELEASE   -
|  1> ! RI PBE def2-SVP def2-SVP/J NBO PAL2
|  2> % maxcore 2000
|  3> % output
|  4>     # printlevel mini
|  5>     print[ P_Basis ] 0
|  6>     print[ P_SCFInfo ] 1
|  7>     print[ P_SCFIterInfo ] 1
|  8>     print[ P_OrbEn ] 0
|  9>     print[ P_Cartesian ] 0
| 10> end
| 11> *xyz 0 1
| 12>  C        0.8303710000     0.1246730000    -0.0575750000
| 13>  C        2.3119260000    -0.0012750000    -0.0618590000
| 14>  N        3.1341990000     0.9943970000    -0.0658230000
| 15>  C        4.4387760000     0.5824710000    -0.0691630000
| 16>  C        4.6189460000    -0.7644450000    -0.0677110000
| 17>  O        5.7427540000    -1.5061530000    -0.0700070000
| 18>  S        3.0915740000    -1.5599260000    -0.0619060000
| 19>  H        0.5801010000     1.1852950000    -0.0582480000
| 20>  H        0.3878220000    -0.3400910000     0.8272040000
| 21>  H        0.3825200000    -0.3424560000    -0.9384330000
| 22>  H        5.2367970000     1.3147520000    -0.0726610000
| 23>  H        6.5037030000    -0.9168500000    -0.0732290000
| 24> *
| 25>
| 26>                          ****END OF INPUT****
 Total Charge           Charge          ....    0
 Multiplicity           Mult            ....    1
 Number of Electrons    NEL             ....   60
 Basis Dimension        Dim             ....  127

MULLIKEN ATOMIC CHARGES
-----------------------
   0 C :    0.100607
   1 C :   -0.234385
   2 N :   -0.076959
   3 C :    0.009489
   4 C :   -0.006196
   5 O :   -0.146241
   6 S :    0.075692
   7 H :    0.038482
   8 H :    0.038689
   9 H :    0.038806
  10 H :   -0.019210
  11 H :    0.181224
Sum of atomic charges:    0.0000000

LOEWDIN ATOMIC CHARGES
----------------------
   0 C :   -0.075715
   1 C :   -0.168346
   2 N :   -0.091933
   3 C :   -0.121167
   4 C :   -0.146609
   5 O :   -0.027038
   6 S :    0.385548
   7 H :    0.047037
   8 H :    0.039778
   9 H :    0.039802
  10 H :    0.019009
  11 H :    0.099634

  Mayer bond orders larger than 0.1
B(  0-C ,  1-C ) :   1.0834 B(  0-C ,  7-H ) :   0.9428 B(  0-C ,  8-H ) :   0.9437
B(  0-C ,  9-H ) :   0.9437 B(  1-C ,  2-N ) :   1.7555 B(  1-C ,  6-S ) :   1.0766
B(  2-N ,  3-C ) :   1.3148 B(  2-N ,  6-S ) :   0.1267 B(  3-C ,  4-C ) :   1.4665
B(  3-C , 10-H ) :   0.9861 B(  4-C ,  5-O ) :   1.2058 B(  4-C ,  6-S ) :   1.1335
B(  5-O , 11-H ) :   0.9603

FINAL SINGLE POINT ENERGY      -682.748889099308

DIPOLE MOMENT
-------------
                                X             Y             Z
Electronic contribution:      4.16302      -3.44138      -0.00756
Nuclear contribution   :     -3.75193       3.31205       0.00636
                        -----------------------------------------
Total Dipole Moment    :      0.41108      -0.12934      -0.00120
                        -----------------------------------------
Magnitude (a.u.)       :      0.43095
Magnitude (Debye)      :      1.09539

                             ****ORCA TERMINATED NORMALLY****
TOTAL RUN TIME: 0 days 0 hours 0 minutes 5 seconds 740 msec
