                         Program Version 3.0.3 - RELEASE   -
|  1> ! RI PBE def2-SVP def2-SVP/J NBO PAL2
|  2> % maxcore 2000
|  3> % output
|  4>     # printlevel mini
|  5>     print[ P_Basis ] 0
|  6>     print[ P_SCFInfo ] 1
|  7>     print[ P_SCFIterInfo ] 1
|  8>     print[ P_OrbEn ] 0
|  9>     print[ P_Cartesian ] 0
| 10> end
| 11> *xyz 0 1
| 12>  C        0.9440870000     0.0089360000    -0.0125970000
| 13>  C        2.4272940000    -0.1144870000    -0.0102860000
| 14>  N        3.2320870000     0.9057560000    -0.0050480000
| 15>  C        4.5423530000     0.5115430000    -0.0040140000
| 16>  N        5.4883400000     1.4938080000     0.0012510000
| 17>  C        4.7442010000    -0.8425470000    -0.0085500000
| 18>  S        3.2251970000    -1.6359460000    -0.0143390000
| 19>  H        0.6831710000     1.0665280000    -0.0095380000
| 20>  H        0.5022860000    -0.4649700000     0.8671220000
| 21>  H        0.5055130000    -0.4590880000    -0.8970630000
| 22>  H        5.1865570000     2.4480850000     0.0048380000
| 23>  H        6.4650580000     1.2827490000     0.0030320000
| 24>  H        5.6718760000    -1.3914580000    -0.0088170000
| 25> *
| 26>
| 27>                          ****END OF INPUT****
 Total Charge           Charge          ....    0
 Multiplicity           Mult            ....    1
 Number of Electrons    NEL             ....   60
 Basis Dimension        Dim             ....  132

MULLIKEN ATOMIC CHARGES
-----------------------
   0 C :    0.104384
   1 C :   -0.216158
   2 N :   -0.100262
   3 C :    0.024203
   4 N :   -0.039904
   5 C :   -0.167374
   6 S :    0.073548
   7 H :    0.034223
   8 H :    0.039534
   9 H :    0.039429
  10 H :    0.112967
  11 H :    0.104118
  12 H :   -0.008709
Sum of atomic charges:   -0.0000000

LOEWDIN ATOMIC CHARGES
----------------------
   0 C :   -0.074195
   1 C :   -0.162878
   2 N :   -0.127123
   3 C :   -0.018829
   4 N :   -0.007364
   5 C :   -0.298479
   6 S :    0.403047
   7 H :    0.044237
   8 H :    0.040940
   9 H :    0.040917
  10 H :    0.071538
  11 H :    0.070137
  12 H :    0.018052

  Mayer bond orders larger than 0.1
B(  0-C ,  1-C ) :   1.0758 B(  0-C ,  7-H ) :   0.9434 B(  0-C ,  8-H ) :   0.9443
B(  0-C ,  9-H ) :   0.9443 B(  1-C ,  2-N ) :   1.6688 B(  1-C ,  6-S ) :   1.1728
B(  2-N ,  3-C ) :   1.3153 B(  2-N ,  6-S ) :   0.1357 B(  3-C ,  4-N ) :   1.2520
B(  3-C ,  5-C ) :   1.4577 B(  4-N , 10-H ) :   0.9389 B(  4-N , 11-H ) :   0.9509
B(  5-C ,  6-S ) :   1.0955 B(  5-C , 12-H ) :   0.9670

FINAL SINGLE POINT ENERGY      -662.919607831921

DIPOLE MOMENT
-------------
                                X             Y             Z
Electronic contribution:      2.11862      -3.26344      -0.00821
Nuclear contribution   :     -1.70611       3.44959       0.01060
                        -----------------------------------------
Total Dipole Moment    :      0.41251       0.18615       0.00240
                        -----------------------------------------
Magnitude (a.u.)       :      0.45257
Magnitude (Debye)      :      1.15034

                             ****ORCA TERMINATED NORMALLY****
TOTAL RUN TIME: 0 days 0 hours 0 minutes 6 seconds 68 msec
