                         Program Version 3.0.3 - RELEASE   -
|  1> ! RI PBE def2-SVP def2-SVP/J NBO PAL2
|  2> % maxcore 2000
|  3> % output
|  4>     # printlevel mini
|  5>     print[ P_Basis ] 0
|  6>     print[ P_SCFInfo ] 1
|  7>     print[ P_SCFIterInfo ] 1
|  8>     print[ P_OrbEn ] 0
|  9>     print[ P_Cartesian ] 0
| 10> end
| 11> *xyz 0 1
| 12>  C        1.0406120000     0.0666410000    -0.0358660000
| 13>  C        2.5246050000    -0.0364390000    -0.0340910000
| 14>  N        3.3220640000     0.9930770000    -0.0296040000
| 15>  C        4.6240830000     0.6036720000    -0.0289880000
| 16>  O        5.5840480000     1.5436950000    -0.0245570000
| 17>  C        4.8556410000    -0.7375760000    -0.0330060000
| 18>  S        3.3474480000    -1.5453740000    -0.0378180000
| 19>  H        0.7644510000     1.1203450000    -0.0330930000
| 20>  H        0.6056500000    -0.4126640000     0.8442860000
| 21>  H        0.6081180000    -0.4073870000    -0.9200800000
| 22>  H        5.1350250000     2.3965140000    -0.0224270000
| 23>  H        5.7981430000    -1.2588950000    -0.0333440000
| 24> *
| 25>
| 26>                          ****END OF INPUT****
 Total Charge           Charge          ....    0
 Multiplicity           Mult            ....    1
 Number of Electrons    NEL             ....   60
 Basis Dimension        Dim             ....  127

MULLIKEN ATOMIC CHARGES
-----------------------
   0 C :    0.101016
   1 C :   -0.223044
   2 N :   -0.121144
   3 C :    0.136644
   4 O :   -0.151446
   5 C :   -0.152029
   6 S :    0.094514
   7 H :    0.038616
   8 H :    0.044219
   9 H :    0.044129
  10 H :    0.170357
  11 H :    0.018168
Sum of atomic charges:    0.0000000

LOEWDIN ATOMIC CHARGES
----------------------
   0 C :   -0.073912
   1 C :   -0.160611
   2 N :   -0.134863
   3 C :   -0.008631
   4 O :   -0.025954
   5 C :   -0.268181
   6 S :    0.423498
   7 H :    0.046316
   8 H :    0.043295
   9 H :    0.043275
  10 H :    0.086718
  11 H :    0.029050

  Mayer bond orders larger than 0.1
B(  0-C ,  1-C ) :   1.0756 B(  0-C ,  7-H ) :   0.9446 B(  0-C ,  8-H ) :   0.9438
B(  0-C ,  9-H ) :   0.9438 B(  1-C ,  2-N ) :   1.6590 B(  1-C ,  6-S ) :   1.1799
B(  2-N ,  3-C ) :   1.2880 B(  2-N ,  6-S ) :   0.1262 B(  3-C ,  4-O ) :   1.2408
B(  3-C ,  5-C ) :   1.4954 B(  4-O , 10-H ) :   0.9525 B(  5-C ,  6-S ) :   1.1199
B(  5-C , 11-H ) :   0.9655

FINAL SINGLE POINT ENERGY      -682.761885756118

DIPOLE MOMENT
-------------
                                X             Y             Z
Electronic contribution:      4.18201      -1.88168      -0.00014
Nuclear contribution   :     -4.67172       1.85849      -0.00058
                        -----------------------------------------
Total Dipole Moment    :     -0.48971      -0.02320      -0.00072
                        -----------------------------------------
Magnitude (a.u.)       :      0.49026
Magnitude (Debye)      :      1.24613

                             ****ORCA TERMINATED NORMALLY****
TOTAL RUN TIME: 0 days 0 hours 0 minutes 6 seconds 506 msec
