                         Program Version 3.0.3 - RELEASE   -
|  1> ! RI PBE def2-SVP def2-SVP/J NBO PAL2
|  2> % maxcore 2000
|  3> % output
|  4>     # printlevel mini
|  5>     print[ P_Basis ] 0
|  6>     print[ P_SCFInfo ] 1
|  7>     print[ P_SCFIterInfo ] 1
|  8>     print[ P_OrbEn ] 0
|  9>     print[ P_Cartesian ] 0
| 10> end
| 11> *xyz 0 1
| 12>  C        1.0027950000     0.1350100000     0.0230000000
| 13>  C        2.4977890000     0.0373380000     0.0283900000
| 14>  N        3.2264200000     1.0185770000     0.8394950000
| 15>  C        4.3051670000     0.1651870000     1.3343570000
| 16>  S        3.2886570000    -1.3131890000     0.9978790000
| 17>  O        2.4800670000    -1.6244590000     2.1478790000
| 18>  O        3.9153460000    -2.3655770000     0.2521580000
| 19>  H        0.6946270000     1.1042180000    -0.3770800000
| 20>  H        0.6054980000     0.0216760000     1.0339960000
| 21>  H        0.5687070000    -0.6433110000    -0.6062370000
| 22>  H        2.9240410000    -0.0102390000    -0.9781430000
| 23>  H        2.6380710000     1.2987220000     1.6168200000
| 24>  H        4.5918560000     0.3180320000     2.3731650000
| 25>  H        5.1752600000     0.1680150000     0.6755320000
| 26> *
| 27>
| 28>                          ****END OF INPUT****
 Total Charge           Charge          ....    0
 Multiplicity           Mult            ....    1
 Number of Electrons    NEL             ....   64
 Basis Dimension        Dim             ....  137

MULLIKEN ATOMIC CHARGES
-----------------------
   0 C :    0.058233
   1 C :   -0.078876
   2 N :   -0.261953
   3 C :    0.117496
   4 S :    0.539327
   5 O :   -0.411489
   6 O :   -0.385880
   7 H :    0.049927
   8 H :    0.035322
   9 H :    0.051764
  10 H :    0.051700
  11 H :    0.115550
  12 H :    0.059135
  13 H :    0.059744
Sum of atomic charges:    0.0000000

LOEWDIN ATOMIC CHARGES
----------------------
   0 C :   -0.074914
   1 C :   -0.105213
   2 N :   -0.100761
   3 C :   -0.092126
   4 S :    1.039120
   5 O :   -0.472883
   6 O :   -0.457004
   7 H :    0.043357
   8 H :    0.033093
   9 H :    0.046427
  10 H :    0.025199
  11 H :    0.061347
  12 H :    0.028037
  13 H :    0.026321

  Mayer bond orders larger than 0.1
B(  0-C ,  1-C ) :   1.0950 B(  0-C ,  7-H ) :   0.9520 B(  0-C ,  8-H ) :   0.9378
B(  0-C ,  9-H ) :   0.9522 B(  1-C ,  2-N ) :   1.0288 B(  1-C ,  4-S ) :   0.6989
B(  1-C , 10-H ) :   0.9027 B(  2-N ,  3-C ) :   1.0524 B(  2-N , 11-H ) :   0.9308
B(  3-C ,  4-S ) :   0.7557 B(  3-C , 12-H ) :   0.9409 B(  3-C , 13-H ) :   0.9266
B(  4-S ,  5-O ) :   1.6764 B(  4-S ,  6-O ) :   1.7540

FINAL SINGLE POINT ENERGY      -720.916700164146

DIPOLE MOMENT
-------------
                                X             Y             Z
Electronic contribution:      3.39408      -5.45503       1.87738
Nuclear contribution   :     -3.59938       6.73247      -2.04641
                        -----------------------------------------
Total Dipole Moment    :     -0.20530       1.27744      -0.16903
                        -----------------------------------------
Magnitude (a.u.)       :      1.30483
Magnitude (Debye)      :      3.31661

                             ****ORCA TERMINATED NORMALLY****
TOTAL RUN TIME: 0 days 0 hours 0 minutes 6 seconds 983 msec
