                         Program Version 3.0.3 - RELEASE   -
|  1> ! RI PBE def2-SVP def2-SVP/J NBO PAL2
|  2> % maxcore 2000
|  3> % output
|  4>     # printlevel mini
|  5>     print[ P_Basis ] 0
|  6>     print[ P_SCFInfo ] 1
|  7>     print[ P_SCFIterInfo ] 1
|  8>     print[ P_OrbEn ] 0
|  9>     print[ P_Cartesian ] 0
| 10> end
| 11> *xyz 0 1
| 12>  C        0.7617440000    -0.0231010000     0.0624150000
| 13>  C        2.2507490000     0.0040830000     0.0624380000
| 14>  C        3.1101040000     1.0694540000     0.0587860000
| 15>  C        2.7410770000     2.5133020000     0.0537510000
| 16>  N        4.4437810000     0.7473970000     0.0599850000
| 17>  C        4.6150300000    -0.5330130000     0.0644750000
| 18>  S        3.1692240000    -1.4515390000     0.0675730000
| 19>  H        0.3630030000     0.9912740000     0.0591610000
| 20>  H        0.3657120000    -0.5316310000     0.9454120000
| 21>  H        0.3658370000    -0.5372470000    -0.8173830000
| 22>  H        1.6623750000     2.6644270000     0.0526980000
| 23>  H        3.1589700000     3.0074010000    -0.8268110000
| 24>  H        3.1580760000     3.0133400000     0.9313850000
| 25>  H        5.5844170000    -1.0143470000     0.0662160000
| 26> *
| 27>
| 28>                          ****END OF INPUT****
 Total Charge           Charge          ....    0
 Multiplicity           Mult            ....    1
 Number of Electrons    NEL             ....   60
 Basis Dimension        Dim             ....  137

MULLIKEN ATOMIC CHARGES
-----------------------
   0 C :    0.086736
   1 C :   -0.257702
   2 C :   -0.102641
   3 C :    0.111315
   4 N :   -0.113635
   5 C :   -0.014993
   6 S :    0.076053
   7 H :    0.023092
   8 H :    0.041257
   9 H :    0.041344
  10 H :   -0.000891
  11 H :    0.035217
  12 H :    0.035347
  13 H :    0.039502
Sum of atomic charges:   -0.0000000

LOEWDIN ATOMIC CHARGES
----------------------
   0 C :   -0.067770
   1 C :   -0.215068
   2 C :   -0.061146
   3 C :   -0.058476
   4 N :   -0.096684
   5 C :   -0.160664
   6 S :    0.409800
   7 H :    0.038339
   8 H :    0.040313
   9 H :    0.040330
  10 H :    0.027871
  11 H :    0.042570
  12 H :    0.042594
  13 H :    0.017990

  Mayer bond orders larger than 0.1
B(  0-C ,  1-C ) :   1.1045 B(  0-C ,  7-H ) :   0.9449 B(  0-C ,  8-H ) :   0.9423
B(  0-C ,  9-H ) :   0.9423 B(  1-C ,  2-C ) :   1.5520 B(  1-C ,  6-S ) :   1.1373
B(  2-C ,  3-C ) :   1.1366 B(  2-C ,  4-N ) :   1.3315 B(  3-C , 10-H ) :   0.9381
B(  3-C , 11-H ) :   0.9351 B(  3-C , 12-H ) :   0.9351 B(  4-N ,  5-C ) :   1.6765
B(  4-N ,  6-S ) :   0.1367 B(  5-C ,  6-S ) :   1.1509 B(  5-C , 13-H ) :   0.9579

FINAL SINGLE POINT ENERGY      -646.893113097715

DIPOLE MOMENT
-------------
                                X             Y             Z
Electronic contribution:      5.34597      -6.86498       0.02425
Nuclear contribution   :     -6.00338       6.70803      -0.02374
                        -----------------------------------------
Total Dipole Moment    :     -0.65741      -0.15695       0.00050
                        -----------------------------------------
Magnitude (a.u.)       :      0.67588
Magnitude (Debye)      :      1.71796

                             ****ORCA TERMINATED NORMALLY****
TOTAL RUN TIME: 0 days 0 hours 0 minutes 6 seconds 660 msec
