                         Program Version 3.0.3 - RELEASE   -
|  1> ! RI PBE def2-SVP def2-SVP/J NBO PAL2
|  2> % maxcore 2000
|  3> % output
|  4>     # printlevel mini
|  5>     print[ P_Basis ] 0
|  6>     print[ P_SCFInfo ] 1
|  7>     print[ P_SCFIterInfo ] 1
|  8>     print[ P_OrbEn ] 0
|  9>     print[ P_Cartesian ] 0
| 10> end
| 11> *xyz 0 1
| 12>  C        0.9461800000    -0.1468880000    -0.0424300000
| 13>  C        2.4318330000    -0.0273420000    -0.0423740000
| 14>  C        3.1480370000     1.1436550000    -0.0446600000
| 15>  N        2.6898720000     2.4326920000    -0.0469370000
| 16>  S        4.8352860000     0.7903190000    -0.0433420000
| 17>  C        4.4588530000    -0.8984160000    -0.0398410000
| 18>  N        3.1989000000    -1.1617990000    -0.0396810000
| 19>  H        0.4526200000     0.8271050000    -0.0425580000
| 20>  H        0.5991530000    -0.6932070000     0.8386510000
| 21>  H        0.5989910000    -0.6937300000    -0.9231450000
| 22>  H        1.7060640000     2.6147500000    -0.0549020000
| 23>  H        3.3159250000     3.2118580000    -0.0542610000
| 24>  H        5.2480850000    -1.6372860000    -0.0378180000
| 25> *
| 26>
| 27>                          ****END OF INPUT****
 Total Charge           Charge          ....    0
 Multiplicity           Mult            ....    1
 Number of Electrons    NEL             ....   60
 Basis Dimension        Dim             ....  132

MULLIKEN ATOMIC CHARGES
-----------------------
   0 C :    0.113107
   1 C :   -0.119545
   2 C :   -0.146067
   3 N :   -0.056971
   4 S :    0.039906
   5 C :   -0.038660
   6 N :   -0.100144
   7 H :   -0.019351
   8 H :    0.034205
   9 H :    0.034185
  10 H :    0.107247
  11 H :    0.117027
  12 H :    0.035061
Sum of atomic charges:    0.0000000

LOEWDIN ATOMIC CHARGES
----------------------
   0 C :   -0.059545
   1 C :   -0.120893
   2 C :   -0.164110
   3 N :   -0.013431
   4 S :    0.366886
   5 C :   -0.182891
   6 N :   -0.085591
   7 H :    0.021347
   8 H :    0.039683
   9 H :    0.039596
  10 H :    0.072108
  11 H :    0.071933
  12 H :    0.014908

  Mayer bond orders larger than 0.1
B(  0-C ,  1-C ) :   1.1404 B(  0-C ,  7-H ) :   0.9380 B(  0-C ,  8-H ) :   0.9363
B(  0-C ,  9-H ) :   0.9365 B(  1-C ,  2-C ) :   1.4399 B(  1-C ,  6-N ) :   1.3423
B(  2-C ,  3-N ) :   1.2516 B(  2-C ,  4-S ) :   1.1221 B(  3-N , 10-H ) :   0.9491
B(  3-N , 11-H ) :   0.9491 B(  4-S ,  5-C ) :   1.0783 B(  4-S ,  6-N ) :   0.1373
B(  5-C ,  6-N ) :   1.7077 B(  5-C , 12-H ) :   0.9582

FINAL SINGLE POINT ENERGY      -662.908977883731

DIPOLE MOMENT
-------------
                                X             Y             Z
Electronic contribution:      7.43331       0.22961       0.00457
Nuclear contribution   :     -7.67196       1.04726      -0.01487
                        -----------------------------------------
Total Dipole Moment    :     -0.23865       1.27687      -0.01030
                        -----------------------------------------
Magnitude (a.u.)       :      1.29902
Magnitude (Debye)      :      3.30184

                             ****ORCA TERMINATED NORMALLY****
TOTAL RUN TIME: 0 days 0 hours 0 minutes 6 seconds 127 msec
