                         Program Version 3.0.3 - RELEASE   -
|  1> ! RI PBE def2-SVP def2-SVP/J NBO PAL2
|  2> % maxcore 2000
|  3> % output
|  4>     # printlevel mini
|  5>     print[ P_Basis ] 0
|  6>     print[ P_SCFInfo ] 1
|  7>     print[ P_SCFIterInfo ] 1
|  8>     print[ P_OrbEn ] 0
|  9>     print[ P_Cartesian ] 0
| 10> end
| 11> *xyz 0 1
| 12>  C        0.9635910000    -0.0822020000    -0.0938870000
| 13>  C        2.4484630000     0.0374770000    -0.0937120000
| 14>  C        3.1649420000     1.1999450000    -0.0966830000
| 15>  O        2.7521700000     2.4834940000    -0.1003540000
| 16>  S        4.8535320000     0.8741320000    -0.0952200000
| 17>  C        4.4821910000    -0.8084710000    -0.0907080000
| 18>  N        3.2235850000    -1.0926500000    -0.0903520000
| 19>  H        0.4646160000     0.8909300000    -0.0959850000
| 20>  H        0.6182400000    -0.6260730000     0.7886830000
| 21>  H        0.6186610000    -0.6297080000    -0.9743790000
| 22>  H        1.7896170000     2.4964010000    -0.1012070000
| 23>  H        5.2739820000    -1.5454650000    -0.0883850000
| 24> *
| 25>
| 26>                          ****END OF INPUT****
 Total Charge           Charge          ....    0
 Multiplicity           Mult            ....    1
 Number of Electrons    NEL             ....   60
 Basis Dimension        Dim             ....  127

MULLIKEN ATOMIC CHARGES
-----------------------
   0 C :    0.101340
   1 C :   -0.126913
   2 C :   -0.052950
   3 O :   -0.140557
   4 S :    0.072348
   5 C :   -0.033808
   6 N :   -0.103072
   7 H :   -0.020637
   8 H :    0.044889
   9 H :    0.044940
  10 H :    0.172033
  11 H :    0.042386
Sum of atomic charges:    0.0000000

LOEWDIN ATOMIC CHARGES
----------------------
   0 C :   -0.058190
   1 C :   -0.122042
   2 C :   -0.151331
   3 O :   -0.028454
   4 S :    0.401990
   5 C :   -0.170255
   6 N :   -0.088312
   7 H :    0.019911
   8 H :    0.044180
   9 H :    0.044169
  10 H :    0.090618
  11 H :    0.017716

  Mayer bond orders larger than 0.1
B(  0-C ,  1-C ) :   1.1219 B(  0-C ,  7-H ) :   0.9335 B(  0-C ,  8-H ) :   0.9379
B(  0-C ,  9-H ) :   0.9380 B(  1-C ,  2-C ) :   1.4414 B(  1-C ,  6-N ) :   1.3292
B(  2-C ,  3-O ) :   1.2253 B(  2-C ,  4-S ) :   1.1315 B(  3-O , 10-H ) :   0.9590
B(  4-S ,  5-C ) :   1.1207 B(  4-S ,  6-N ) :   0.1371 B(  5-C ,  6-N ) :   1.6954
B(  5-C , 11-H ) :   0.9583

FINAL SINGLE POINT ENERGY      -682.746923050302

DIPOLE MOMENT
-------------
                                X             Y             Z
Electronic contribution:      7.04912       2.20357      -0.00362
Nuclear contribution   :     -7.57290      -1.77097       0.00197
                        -----------------------------------------
Total Dipole Moment    :     -0.52378       0.43260      -0.00165
                        -----------------------------------------
Magnitude (a.u.)       :      0.67933
Magnitude (Debye)      :      1.72672

                             ****ORCA TERMINATED NORMALLY****
TOTAL RUN TIME: 0 days 0 hours 0 minutes 5 seconds 668 msec
