                         Program Version 3.0.3 - RELEASE   -
|  1> ! RI PBE def2-SVP def2-SVP/J NBO PAL2
|  2> % maxcore 2000
|  3> % output
|  4>     # printlevel mini
|  5>     print[ P_Basis ] 0
|  6>     print[ P_SCFInfo ] 1
|  7>     print[ P_SCFIterInfo ] 1
|  8>     print[ P_OrbEn ] 0
|  9>     print[ P_Cartesian ] 0
| 10> end
| 11> *xyz 0 1
| 12>  C        1.0625380000     0.3056650000     0.0429060000
| 13>  C        2.5113990000    -0.0190440000     0.0367430000
| 14>  N        3.4472440000     0.8759070000     0.0326170000
| 15>  N        4.6942520000     0.3555330000     0.0273510000
| 16>  C        4.7163750000    -0.9391750000     0.0274380000
| 17>  C        5.9662840000    -1.7406580000     0.0222130000
| 18>  S        3.1327470000    -1.6321210000     0.0342470000
| 19>  H        0.9544450000     1.3898340000     0.0432310000
| 20>  H        0.5669900000    -0.1002090000     0.9277640000
| 21>  H        0.5594310000    -0.1004340000    -0.8375730000
| 22>  H        6.8129460000    -1.0549050000     0.0185100000
| 23>  H        6.0251590000    -2.3812700000    -0.8606370000
| 24>  H        6.0326910000    -2.3810340000     0.9047000000
| 25> *
| 26>
| 27>                          ****END OF INPUT****
 Total Charge           Charge          ....    0
 Multiplicity           Mult            ....    1
 Number of Electrons    NEL             ....   60
 Basis Dimension        Dim             ....  132

MULLIKEN ATOMIC CHARGES
-----------------------
   0 C :    0.099017
   1 C :   -0.210754
   2 N :   -0.062474
   3 N :   -0.063404
   4 C :   -0.207699
   5 C :    0.096632
   6 S :    0.067953
   7 H :    0.048552
   8 H :    0.045837
   9 H :    0.046018
  10 H :    0.046044
  11 H :    0.047142
  12 H :    0.047136
Sum of atomic charges:   -0.0000000

LOEWDIN ATOMIC CHARGES
----------------------
   0 C :   -0.072759
   1 C :   -0.173608
   2 N :   -0.081998
   3 N :   -0.082089
   4 C :   -0.173569
   5 C :   -0.072865
   6 S :    0.376130
   7 H :    0.050462
   8 H :    0.044989
   9 H :    0.045024
  10 H :    0.050173
  11 H :    0.045057
  12 H :    0.045053

  Mayer bond orders larger than 0.1
B(  0-C ,  1-C ) :   1.0965 B(  0-C ,  7-H ) :   0.9395 B(  0-C ,  8-H ) :   0.9396
B(  0-C ,  9-H ) :   0.9396 B(  1-C ,  2-N ) :   1.7260 B(  1-C ,  6-S ) :   1.1005
B(  2-N ,  3-N ) :   1.1584 B(  2-N ,  6-S ) :   0.1320 B(  3-N ,  4-C ) :   1.7267
B(  3-N ,  6-S ) :   0.1318 B(  4-C ,  5-C ) :   1.0938 B(  4-C ,  6-S ) :   1.1008
B(  5-C , 10-H ) :   0.9393 B(  5-C , 11-H ) :   0.9408 B(  5-C , 12-H ) :   0.9408

FINAL SINGLE POINT ENERGY      -662.901834191733

DIPOLE MOMENT
-------------
                                X             Y             Z
Electronic contribution:     -0.06494      -0.15125       0.00007
Nuclear contribution   :     -0.38467      -0.92182       0.00193
                        -----------------------------------------
Total Dipole Moment    :     -0.44961      -1.07307       0.00200
                        -----------------------------------------
Magnitude (a.u.)       :      1.16346
Magnitude (Debye)      :      2.95727

                             ****ORCA TERMINATED NORMALLY****
TOTAL RUN TIME: 0 days 0 hours 0 minutes 6 seconds 602 msec
