                         Program Version 3.0.3 - RELEASE   -
|  1> ! RI PBE def2-SVP def2-SVP/J NBO PAL2
|  2> % maxcore 2000
|  3> % output
|  4>     # printlevel mini
|  5>     print[ P_Basis ] 0
|  6>     print[ P_SCFInfo ] 1
|  7>     print[ P_SCFIterInfo ] 1
|  8>     print[ P_OrbEn ] 0
|  9>     print[ P_Cartesian ] 0
| 10> end
| 11> *xyz 0 1
| 12>  C        1.0272640000     0.2327370000    -0.0460500000
| 13>  C        2.5143870000     0.1663770000    -0.0482570000
| 14>  C        3.4331060000     1.1881210000    -0.0491130000
| 15>  C        3.1745210000     2.6544480000    -0.0480370000
| 16>  N        4.7278750000     0.7559390000    -0.0511660000
| 17>  N        4.8761340000    -0.5061530000    -0.0520310000
| 18>  S        3.3898760000    -1.2845960000    -0.0502420000
| 19>  H        0.6875200000     1.2684220000    -0.0452090000
| 20>  H        0.6080480000    -0.2579450000     0.8354810000
| 21>  H        0.6054580000    -0.2573620000    -0.9266670000
| 22>  H        2.1083210000     2.8781620000    -0.0462550000
| 23>  H        3.6214060000     3.1212320000    -0.9285930000
| 24>  H        3.6241760000     3.1204160000     0.8315390000
| 25> *
| 26>
| 27>                          ****END OF INPUT****
 Total Charge           Charge          ....    0
 Multiplicity           Mult            ....    1
 Number of Electrons    NEL             ....   60
 Basis Dimension        Dim             ....  132

MULLIKEN ATOMIC CHARGES
-----------------------
   0 C :    0.092994
   1 C :   -0.314905
   2 C :   -0.060867
   3 C :    0.111468
   4 N :   -0.099874
   5 N :   -0.213158
   6 S :    0.265419
   7 H :    0.026137
   8 H :    0.049640
   9 H :    0.049665
  10 H :    0.003935
  11 H :    0.044771
  12 H :    0.044776
Sum of atomic charges:    0.0000000

LOEWDIN ATOMIC CHARGES
----------------------
   0 C :   -0.064092
   1 C :   -0.216608
   2 C :   -0.085153
   3 C :   -0.055945
   4 N :   -0.070952
   5 N :   -0.230905
   6 S :    0.468042
   7 H :    0.038656
   8 H :    0.046011
   9 H :    0.046013
  10 H :    0.031086
  11 H :    0.046923
  12 H :    0.046925

  Mayer bond orders larger than 0.1
B(  0-C ,  1-C ) :   1.0998 B(  0-C ,  7-H ) :   0.9432 B(  0-C ,  8-H ) :   0.9414
B(  0-C ,  9-H ) :   0.9414 B(  1-C ,  2-C ) :   1.4636 B(  1-C ,  5-N ) :   0.1474
B(  1-C ,  6-S ) :   1.2130 B(  2-C ,  3-C ) :   1.1401 B(  2-C ,  4-N ) :   1.3184
B(  3-C , 10-H ) :   0.9377 B(  3-C , 11-H ) :   0.9369 B(  3-C , 12-H ) :   0.9368
B(  4-N ,  5-N ) :   1.4874 B(  4-N ,  6-S ) :   0.1926 B(  5-N ,  6-S ) :   1.1247

FINAL SINGLE POINT ENERGY      -662.887581099949

DIPOLE MOMENT
-------------
                                X             Y             Z
Electronic contribution:      6.42527      -7.80002      -0.01310
Nuclear contribution   :     -7.98824       8.16020       0.01556
                        -----------------------------------------
Total Dipole Moment    :     -1.56297       0.36018       0.00246
                        -----------------------------------------
Magnitude (a.u.)       :      1.60394
Magnitude (Debye)      :      4.07688

                             ****ORCA TERMINATED NORMALLY****
TOTAL RUN TIME: 0 days 0 hours 0 minutes 6 seconds 511 msec
