                         Program Version 3.0.3 - RELEASE   -
|  1> ! RI PBE def2-SVP def2-SVP/J NBO PAL2
|  2> % maxcore 2000
|  3> % output
|  4>     # printlevel mini
|  5>     print[ P_Basis ] 0
|  6>     print[ P_SCFInfo ] 1
|  7>     print[ P_SCFIterInfo ] 1
|  8>     print[ P_OrbEn ] 0
|  9>     print[ P_Cartesian ] 0
| 10> end
| 11> *xyz 0 1
| 12>  C        1.0235400000    -0.0699400000     0.0584160000
| 13>  C        2.5126590000    -0.0194860000     0.0587510000
| 14>  N        3.1443270000     1.1311390000     0.0581270000
| 15>  S        4.7588340000     0.8865550000     0.0587010000
| 16>  C        4.6653930000    -0.8115540000     0.0598260000
| 17>  C        3.3460200000    -1.1838000000     0.0597490000
| 18>  N        2.8400290000    -2.4573020000     0.0605020000
| 19>  H        0.6196360000     0.9410690000     0.0576290000
| 20>  H        0.6435340000    -0.5932870000     0.9424490000
| 21>  H        0.6439720000    -0.5944860000    -0.8250950000
| 22>  H        5.5396260000    -1.4455770000     0.0604770000
| 23>  H        3.4417850000    -3.2559140000     0.0610970000
| 24>  H        1.8518540000    -2.6111160000     0.0602430000
| 25> *
| 26>
| 27>                          ****END OF INPUT****
 Total Charge           Charge          ....    0
 Multiplicity           Mult            ....    1
 Number of Electrons    NEL             ....   60
 Basis Dimension        Dim             ....  132

MULLIKEN ATOMIC CHARGES
-----------------------
   0 C :    0.053439
   1 C :   -0.088476
   2 N :   -0.297629
   3 S :    0.241285
   4 C :   -0.158349
   5 C :    0.002451
   6 N :   -0.056681
   7 H :    0.031597
   8 H :    0.033573
   9 H :    0.033579
  10 H :   -0.004507
  11 H :    0.107684
  12 H :    0.102034
Sum of atomic charges:   -0.0000000

LOEWDIN ATOMIC CHARGES
----------------------
   0 C :   -0.068216
   1 C :   -0.076354
   2 N :   -0.275877
   3 S :    0.480498
   4 C :   -0.271703
   5 C :   -0.051779
   6 N :   -0.009230
   7 H :    0.045127
   8 H :    0.034751
   9 H :    0.034750
  10 H :    0.018914
  11 H :    0.071585
  12 H :    0.067534

  Mayer bond orders larger than 0.1
B(  0-C ,  1-C ) :   1.1125 B(  0-C ,  7-H ) :   0.9293 B(  0-C ,  8-H ) :   0.9448
B(  0-C ,  9-H ) :   0.9448 B(  1-C ,  2-N ) :   1.6067 B(  1-C ,  5-C ) :   1.1734
B(  2-N ,  3-S ) :   1.2086 B(  2-N ,  4-C ) :   0.1366 B(  3-S ,  4-C ) :   1.1124
B(  3-S ,  5-C ) :   0.1011 B(  4-C ,  5-C ) :   1.4670 B(  4-C , 10-H ) :   0.9629
B(  5-C ,  6-N ) :   1.2599 B(  6-N , 11-H ) :   0.9526 B(  6-N , 12-H ) :   0.9428

FINAL SINGLE POINT ENERGY      -662.905082959992

DIPOLE MOMENT
-------------
                                X             Y             Z
Electronic contribution:      6.93356       4.50445      -0.00126
Nuclear contribution   :     -7.21845      -6.00372       0.00210
                        -----------------------------------------
Total Dipole Moment    :     -0.28488      -1.49927       0.00084
                        -----------------------------------------
Magnitude (a.u.)       :      1.52609
Magnitude (Debye)      :      3.87902

                             ****ORCA TERMINATED NORMALLY****
TOTAL RUN TIME: 0 days 0 hours 0 minutes 6 seconds 127 msec
