                         Program Version 3.0.3 - RELEASE   -
|  1> ! RI PBE def2-SVP def2-SVP/J NBO PAL2
|  2> % maxcore 2000
|  3> % output
|  4>     # printlevel mini
|  5>     print[ P_Basis ] 0
|  6>     print[ P_SCFInfo ] 1
|  7>     print[ P_SCFIterInfo ] 1
|  8>     print[ P_OrbEn ] 0
|  9>     print[ P_Cartesian ] 0
| 10> end
| 11> *xyz 0 1
| 12>  C        0.8986670000    -0.0719990000     0.0418700000
| 13>  C        2.3857190000    -0.0213510000     0.0423340000
| 14>  N        3.0317440000     1.1209190000     0.0419210000
| 15>  S        4.6480950000     0.8616350000     0.0426010000
| 16>  C        4.5413460000    -0.8348210000     0.0434900000
| 17>  C        3.2196220000    -1.1774420000     0.0432400000
| 18>  O        2.6627830000    -2.4123130000     0.0437300000
| 19>  H        0.4946670000     0.9389900000     0.0411710000
| 20>  H        0.5282510000    -0.6065450000     0.9206680000
| 21>  H        0.5288320000    -0.6075290000    -0.8365730000
| 22>  H        5.4063470000    -1.4822020000     0.0441300000
| 23>  H        3.3527270000    -3.0805610000     0.0443160000
| 24> *
| 25>
| 26>                          ****END OF INPUT****
 Total Charge           Charge          ....    0
 Multiplicity           Mult            ....    1
 Number of Electrons    NEL             ....   60
 Basis Dimension        Dim             ....  127

MULLIKEN ATOMIC CHARGES
-----------------------
   0 C :    0.093869
   1 C :   -0.101829
   2 N :   -0.295132
   3 S :    0.253963
   4 C :   -0.160974
   5 C :    0.077043
   6 O :   -0.154080
   7 H :    0.027965
   8 H :    0.037810
   9 H :    0.037815
  10 H :    0.009697
  11 H :    0.173851
Sum of atomic charges:   -0.0000000

LOEWDIN ATOMIC CHARGES
----------------------
   0 C :   -0.058407
   1 C :   -0.069116
   2 N :   -0.270707
   3 S :    0.491330
   4 C :   -0.271767
   5 C :   -0.035003
   6 O :   -0.026715
   7 H :    0.041113
   8 H :    0.042124
   9 H :    0.042125
  10 H :    0.022906
  11 H :    0.092117

  Mayer bond orders larger than 0.1
B(  0-C ,  1-C ) :   1.0984 B(  0-C ,  7-H ) :   0.9372 B(  0-C ,  8-H ) :   0.9448
B(  0-C ,  9-H ) :   0.9448 B(  1-C ,  2-N ) :   1.6098 B(  1-C ,  5-C ) :   1.1998
B(  2-N ,  3-S ) :   1.1998 B(  2-N ,  4-C ) :   0.1361 B(  3-S ,  4-C ) :   1.1262
B(  3-S ,  5-C ) :   0.1074 B(  4-C ,  5-C ) :   1.4697 B(  4-C , 10-H ) :   0.9608
B(  5-C ,  6-O ) :   1.2494 B(  6-O , 11-H ) :   0.9653

FINAL SINGLE POINT ENERGY      -682.744042115331

DIPOLE MOMENT
-------------
                                X             Y             Z
Electronic contribution:      6.14790       2.38867       0.00074
Nuclear contribution   :     -5.74056      -3.55889       0.00004
                        -----------------------------------------
Total Dipole Moment    :      0.40734      -1.17021       0.00079
                        -----------------------------------------
Magnitude (a.u.)       :      1.23908
Magnitude (Debye)      :      3.14950

                             ****ORCA TERMINATED NORMALLY****
TOTAL RUN TIME: 0 days 0 hours 0 minutes 5 seconds 790 msec
