                         Program Version 3.0.3 - RELEASE   -
|  1> ! RI PBE def2-SVP def2-SVP/J NBO PAL2
|  2> % maxcore 2000
|  3> % output
|  4>     # printlevel mini
|  5>     print[ P_Basis ] 0
|  6>     print[ P_SCFInfo ] 1
|  7>     print[ P_SCFIterInfo ] 1
|  8>     print[ P_OrbEn ] 0
|  9>     print[ P_Cartesian ] 0
| 10> end
| 11> *xyz 0 1
| 12>  C        1.1875740000     0.1822730000     0.0339170000
| 13>  C        2.6472930000    -0.0968310000     0.0315420000
| 14>  N        3.5720830000     0.8234300000     0.0286230000
| 15>  C        4.8049810000     0.2374960000     0.0270830000
| 16>  C        6.0371950000     1.0758180000     0.0236600000
| 17>  N        4.8787980000    -1.0712930000     0.0286300000
| 18>  S        3.3489370000    -1.6595880000     0.0322360000
| 19>  H        1.0342510000     1.2604840000     0.0327870000
| 20>  H        0.7053560000    -0.2429760000     0.9169710000
| 21>  H        0.7020420000    -0.2452980000    -0.8461940000
| 22>  H        5.7691180000     2.1304940000     0.0231550000
| 23>  H        6.6437950000     0.8583190000    -0.8574840000
| 24>  H        6.6474960000     0.8600720000     0.9026730000
| 25> *
| 26>
| 27>                          ****END OF INPUT****
 Total Charge           Charge          ....    0
 Multiplicity           Mult            ....    1
 Number of Electrons    NEL             ....   60
 Basis Dimension        Dim             ....  132

MULLIKEN ATOMIC CHARGES
-----------------------
   0 C :    0.098592
   1 C :   -0.240864
   2 N :   -0.096842
   3 C :   -0.101818
   4 C :    0.102564
   5 N :   -0.282068
   6 S :    0.255818
   7 H :    0.045921
   8 H :    0.048207
   9 H :    0.048271
  10 H :    0.029556
  11 H :    0.046297
  12 H :    0.046368
Sum of atomic charges:   -0.0000000

LOEWDIN ATOMIC CHARGES
----------------------
   0 C :   -0.074639
   1 C :   -0.164642
   2 N :   -0.119650
   3 C :   -0.039594
   4 C :   -0.065554
   5 N :   -0.285142
   6 S :    0.472601
   7 H :    0.048958
   8 H :    0.046650
   9 H :    0.046662
  10 H :    0.040012
  11 H :    0.047168
  12 H :    0.047171

  Mayer bond orders larger than 0.1
B(  0-C ,  1-C ) :   1.0718 B(  0-C ,  7-H ) :   0.9399 B(  0-C ,  8-H ) :   0.9420
B(  0-C ,  9-H ) :   0.9420 B(  1-C ,  2-N ) :   1.6525 B(  1-C ,  5-N ) :   0.1410
B(  1-C ,  6-S ) :   1.1731 B(  2-N ,  3-C ) :   1.3516 B(  2-N ,  6-S ) :   0.1203
B(  3-C ,  4-C ) :   1.0991 B(  3-C ,  5-N ) :   1.6036 B(  4-C , 10-H ) :   0.9412
B(  4-C , 11-H ) :   0.9410 B(  4-C , 12-H ) :   0.9410 B(  5-N ,  6-S ) :   1.1799

FINAL SINGLE POINT ENERGY      -662.920328259852

DIPOLE MOMENT
-------------
                                X             Y             Z
Electronic contribution:      0.04923      -6.00869       0.00770
Nuclear contribution   :     -0.70196       6.11309      -0.00666
                        -----------------------------------------
Total Dipole Moment    :     -0.65274       0.10440       0.00103
                        -----------------------------------------
Magnitude (a.u.)       :      0.66103
Magnitude (Debye)      :      1.68021

                             ****ORCA TERMINATED NORMALLY****
TOTAL RUN TIME: 0 days 0 hours 0 minutes 6 seconds 648 msec
