                         Program Version 3.0.3 - RELEASE   -
|  1> ! RI PBE def2-SVP def2-SVP/J NBO PAL2
|  2> % maxcore 2000
|  3> % output
|  4>     # printlevel mini
|  5>     print[ P_Basis ] 0
|  6>     print[ P_SCFInfo ] 1
|  7>     print[ P_SCFIterInfo ] 1
|  8>     print[ P_OrbEn ] 0
|  9>     print[ P_Cartesian ] 0
| 10> end
| 11> *xyz 0 1
| 12>  C        1.1676130000     0.0870780000    -0.0810800000
| 13>  C        2.6562310000     0.0595800000    -0.0838630000
| 14>  N        3.3670740000     1.1664010000    -0.0911970000
| 15>  S        4.9327130000     0.7400050000    -0.0919930000
| 16>  N        4.7513820000    -0.8724710000    -0.0829940000
| 17>  C        3.4603640000    -1.1247840000    -0.0791020000
| 18>  C        2.9366910000    -2.5184980000    -0.0706000000
| 19>  H        0.8115170000     1.1157660000    -0.0858570000
| 20>  H        0.7677600000    -0.4189230000     0.8023140000
| 21>  H        0.7642980000    -0.4282910000    -0.9574570000
| 22>  H        3.7614340000    -3.2290050000    -0.0684470000
| 23>  H        2.3121020000    -2.7080300000    -0.9482520000
| 24>  H        2.3156200000    -2.6986170000     0.8115190000
| 25> *
| 26>
| 27>                          ****END OF INPUT****
 Total Charge           Charge          ....    0
 Multiplicity           Mult            ....    1
 Number of Electrons    NEL             ....   60
 Basis Dimension        Dim             ....  132

MULLIKEN ATOMIC CHARGES
-----------------------
   0 C :    0.092862
   1 C :   -0.132526
   2 N :   -0.268651
   3 S :    0.401055
   4 N :   -0.268784
   5 C :   -0.140133
   6 C :    0.098464
   7 H :    0.036075
   8 H :    0.036764
   9 H :    0.036909
  10 H :    0.037453
  11 H :    0.035294
  12 H :    0.035218
Sum of atomic charges:   -0.0000000

LOEWDIN ATOMIC CHARGES
----------------------
   0 C :   -0.060445
   1 C :   -0.073646
   2 N :   -0.267050
   3 S :    0.547371
   4 N :   -0.266931
   5 C :   -0.073694
   6 C :   -0.061301
   7 H :    0.043720
   8 H :    0.041989
   9 H :    0.042013
  10 H :    0.044179
  11 H :    0.041898
  12 H :    0.041897

  Mayer bond orders larger than 0.1
B(  0-C ,  1-C ) :   1.1268 B(  0-C ,  7-H ) :   0.9372 B(  0-C ,  8-H ) :   0.9398
B(  0-C ,  9-H ) :   0.9399 B(  1-C ,  2-N ) :   1.6207 B(  1-C ,  3-S ) :   0.1022
B(  1-C ,  5-C ) :   1.1863 B(  2-N ,  3-S ) :   1.2144 B(  2-N ,  4-N ) :   0.1388
B(  3-S ,  4-N ) :   1.2140 B(  3-S ,  5-C ) :   0.1041 B(  4-N ,  5-C ) :   1.6226
B(  5-C ,  6-C ) :   1.1324 B(  6-C , 10-H ) :   0.9357 B(  6-C , 11-H ) :   0.9374
B(  6-C , 12-H ) :   0.9373

FINAL SINGLE POINT ENERGY      -662.910152880403

DIPOLE MOMENT
-------------
                                X             Y             Z
Electronic contribution:      9.22420       6.26678      -0.05171
Nuclear contribution   :     -9.95578      -6.75933       0.05583
                        -----------------------------------------
Total Dipole Moment    :     -0.73158      -0.49255       0.00411
                        -----------------------------------------
Magnitude (a.u.)       :      0.88195
Magnitude (Debye)      :      2.24173

                             ****ORCA TERMINATED NORMALLY****
TOTAL RUN TIME: 0 days 0 hours 0 minutes 7 seconds 193 msec
