                         Program Version 3.0.3 - RELEASE   -
|  1> ! RI PBE def2-SVP def2-SVP/J NBO PAL2
|  2> % maxcore 2000
|  3> % output
|  4>     # printlevel mini
|  5>     print[ P_Basis ] 0
|  6>     print[ P_SCFInfo ] 1
|  7>     print[ P_SCFIterInfo ] 1
|  8>     print[ P_OrbEn ] 0
|  9>     print[ P_Cartesian ] 0
| 10> end
| 11> *xyz 0 1
| 12>  C        0.9137530000     0.0576480000     0.1118320000
| 13>  C        2.3958410000    -0.1087910000     0.0279310000
| 14>  O        3.1224250000     0.8688420000     0.7745440000
| 15>  C        4.1275840000     0.0827410000     1.3916000000
| 16>  S        3.1907330000    -1.4300810000     1.0185070000
| 17>  O        2.3681890000    -1.8300510000     2.1231050000
| 18>  O        3.9095590000    -2.4045140000     0.2533420000
| 19>  H        0.6325190000     1.0290730000    -0.3013980000
| 20>  H        0.5788130000    -0.0023660000     1.1475560000
| 21>  H        0.4149430000    -0.7186560000    -0.4717270000
| 22>  H        2.7687370000    -0.1850570000    -1.0002190000
| 23>  H        4.2447990000     0.3147320000     2.4501120000
| 24>  H        5.0813940000     0.0934810000     0.8561150000
| 25> *
| 26>
| 27>                          ****END OF INPUT****
 Total Charge           Charge          ....    0
 Multiplicity           Mult            ....    1
 Number of Electrons    NEL             ....   64
 Basis Dimension        Dim             ....  132

MULLIKEN ATOMIC CHARGES
-----------------------
   0 C :    0.068035
   1 C :    0.014383
   2 O :   -0.344356
   3 C :    0.195735
   4 S :    0.541306
   5 O :   -0.387967
   6 O :   -0.381378
   7 H :    0.050177
   8 H :    0.040117
   9 H :    0.047065
  10 H :    0.043459
  11 H :    0.063341
  12 H :    0.050084
Sum of atomic charges:   -0.0000000

LOEWDIN ATOMIC CHARGES
----------------------
   0 C :   -0.076262
   1 C :   -0.056835
   2 O :   -0.158526
   3 C :   -0.038902
   4 S :    1.043253
   5 O :   -0.450317
   6 O :   -0.450475
   7 H :    0.046608
   8 H :    0.037122
   9 H :    0.045999
  10 H :    0.016091
  11 H :    0.025602
  12 H :    0.016641

  Mayer bond orders larger than 0.1
B(  0-C ,  1-C ) :   1.0836 B(  0-C ,  7-H ) :   0.9448 B(  0-C ,  8-H ) :   0.9410
B(  0-C ,  9-H ) :   0.9465 B(  1-C ,  2-O ) :   1.0086 B(  1-C ,  4-S ) :   0.7307
B(  1-C , 10-H ) :   0.9035 B(  2-O ,  3-C ) :   1.0167 B(  3-C ,  4-S ) :   0.7819
B(  3-C , 11-H ) :   0.9369 B(  3-C , 12-H ) :   0.9221 B(  4-S ,  5-O ) :   1.7211
B(  4-S ,  6-O ) :   1.7558

FINAL SINGLE POINT ENERGY      -740.749296155789

DIPOLE MOMENT
-------------
                                X             Y             Z
Electronic contribution:      3.49499      -4.09077       1.88111
Nuclear contribution   :     -3.52553       5.05508      -2.28185
                        -----------------------------------------
Total Dipole Moment    :     -0.03054       0.96430      -0.40075
                        -----------------------------------------
Magnitude (a.u.)       :      1.04471
Magnitude (Debye)      :      2.65543

                             ****ORCA TERMINATED NORMALLY****
TOTAL RUN TIME: 0 days 0 hours 0 minutes 6 seconds 746 msec
