                         Program Version 3.0.3 - RELEASE   -
|  1> ! RI PBE def2-SVP def2-SVP/J NBO PAL2
|  2> % maxcore 2000
|  3> % output
|  4>     # printlevel mini
|  5>     print[ P_Basis ] 0
|  6>     print[ P_SCFInfo ] 1
|  7>     print[ P_SCFIterInfo ] 1
|  8>     print[ P_OrbEn ] 0
|  9>     print[ P_Cartesian ] 0
| 10> end
| 11> *xyz 0 1
| 12>  C        0.8950240000     0.0016110000    -0.1635830000
| 13>  C        2.3834890000    -0.0490910000    -0.1543520000
| 14>  C        3.2486240000     1.0123580000    -0.0702030000
| 15>  N        2.8487400000     2.3478280000    -0.0326720000
| 16>  C        4.6127710000     0.6107460000    -0.1031660000
| 17>  C        4.7598840000    -0.7384140000    -0.2090780000
| 18>  S        3.2531000000    -1.5254810000    -0.2759080000
| 19>  H        0.5133530000     0.5232840000    -1.0477940000
| 20>  H        0.5057240000     0.5215310000     0.7196760000
| 21>  H        0.4605690000    -0.9989800000    -0.1613660000
| 22>  H        1.9105710000     2.4860370000     0.3106700000
| 23>  H        3.4959220000     2.9527950000     0.4485410000
| 24>  H        5.4443900000     1.3030860000    -0.0558240000
| 25>  H        5.6775390000    -1.3042010000    -0.2528500000
| 26> *
| 27>
| 28>                          ****END OF INPUT****
 Total Charge           Charge          ....    0
 Multiplicity           Mult            ....    1
 Number of Electrons    NEL             ....   60
 Basis Dimension        Dim             ....  137

MULLIKEN ATOMIC CHARGES
-----------------------
   0 C :    0.058078
   1 C :   -0.296022
   2 C :    0.013667
   3 N :   -0.061938
   4 C :    0.020353
   5 C :   -0.090482
   6 S :    0.080824
   7 H :    0.042733
   8 H :    0.029914
   9 H :    0.016572
  10 H :    0.095498
  11 H :    0.104789
  12 H :   -0.035492
  13 H :    0.021505
Sum of atomic charges:    0.0000000

LOEWDIN ATOMIC CHARGES
----------------------
   0 C :   -0.073197
   1 C :   -0.256340
   2 C :   -0.045230
   3 N :   -0.032472
   4 C :   -0.094074
   5 C :   -0.208931
   6 S :    0.427551
   7 H :    0.035952
   8 H :    0.030579
   9 H :    0.036074
  10 H :    0.064140
  11 H :    0.067858
  12 H :    0.024820
  13 H :    0.023270

  Mayer bond orders larger than 0.1
B(  0-C ,  1-C ) :   1.1157 B(  0-C ,  7-H ) :   0.9500 B(  0-C ,  8-H ) :   0.9469
B(  0-C ,  9-H ) :   0.9324 B(  1-C ,  2-C ) :   1.4875 B(  1-C ,  6-S ) :   1.1170
B(  2-C ,  3-N ) :   1.2237 B(  2-C ,  4-C ) :   1.2509 B(  3-N , 10-H ) :   0.9468
B(  3-N , 11-H ) :   0.9463 B(  4-C ,  5-C ) :   1.5057 B(  4-C , 12-H ) :   0.9935
B(  5-C ,  6-S ) :   1.1908 B(  5-C , 13-H ) :   0.9650

FINAL SINGLE POINT ENERGY      -646.883922041123

DIPOLE MOMENT
-------------
                                X             Y             Z
Electronic contribution:      3.42804      -4.64113      -0.55888
Nuclear contribution   :     -3.61228       5.22694       0.99783
                        -----------------------------------------
Total Dipole Moment    :     -0.18424       0.58581       0.43894
                        -----------------------------------------
Magnitude (a.u.)       :      0.75484
Magnitude (Debye)      :      1.91866

                             ****ORCA TERMINATED NORMALLY****
TOTAL RUN TIME: 0 days 0 hours 0 minutes 7 seconds 129 msec
