                         Program Version 3.0.3 - RELEASE   -
|  1> ! RI PBE def2-SVP def2-SVP/J NBO PAL2
|  2> % maxcore 2000
|  3> % output
|  4>     # printlevel mini
|  5>     print[ P_Basis ] 0
|  6>     print[ P_SCFInfo ] 1
|  7>     print[ P_SCFIterInfo ] 1
|  8>     print[ P_OrbEn ] 0
|  9>     print[ P_Cartesian ] 0
| 10> end
| 11> *xyz 0 1
| 12>  C        0.8526890000     0.1178970000    -0.0653430000
| 13>  C        2.3418870000     0.0820330000    -0.0698200000
| 14>  C        3.2228270000     1.1299630000    -0.0690350000
| 15>  O        2.9105610000     2.4508980000    -0.0639090000
| 16>  C        4.5862360000     0.7337270000    -0.0742940000
| 17>  C        4.7224740000    -0.6177970000    -0.0789910000
| 18>  S        3.2090740000    -1.4046360000    -0.0770960000
| 19>  H        0.4808080000     1.1467210000    -0.0618010000
| 20>  H        0.4322730000    -0.3712250000     0.8176340000
| 21>  H        0.4271170000    -0.3669440000    -0.9482050000
| 22>  H        1.9549390000     2.5526240000    -0.0605050000
| 23>  H        5.4068410000     1.4379780000    -0.0744470000
| 24>  H        5.6347840000    -1.1938290000    -0.0834870000
| 25> *
| 26>
| 27>                          ****END OF INPUT****
 Total Charge           Charge          ....    0
 Multiplicity           Mult            ....    1
 Number of Electrons    NEL             ....   60
 Basis Dimension        Dim             ....  132

MULLIKEN ATOMIC CHARGES
-----------------------
   0 C :    0.080746
   1 C :   -0.320208
   2 C :    0.121116
   3 O :   -0.156472
   4 C :    0.014699
   5 C :   -0.080393
   6 S :    0.086483
   7 H :   -0.006673
   8 H :    0.044407
   9 H :    0.044413
  10 H :    0.159417
  11 H :   -0.016244
  12 H :    0.028711
Sum of atomic charges:   -0.0000000

LOEWDIN ATOMIC CHARGES
----------------------
   0 C :   -0.067692
   1 C :   -0.266570
   2 C :   -0.015962
   3 O :   -0.033639
   4 C :   -0.085836
   5 C :   -0.199364
   6 S :    0.425035
   7 H :    0.026373
   8 H :    0.039597
   9 H :    0.039610
  10 H :    0.079611
  11 H :    0.033431
  12 H :    0.025407

  Mayer bond orders larger than 0.1
B(  0-C ,  1-C ) :   1.0964 B(  0-C ,  7-H ) :   0.9408 B(  0-C ,  8-H ) :   0.9449
B(  0-C ,  9-H ) :   0.9449 B(  1-C ,  2-C ) :   1.4751 B(  1-C ,  5-C ) :   0.1033
B(  1-C ,  6-S ) :   1.1097 B(  2-C ,  3-O ) :   1.2343 B(  2-C ,  4-C ) :   1.2523
B(  3-O , 10-H ) :   0.9672 B(  4-C ,  5-C ) :   1.5233 B(  4-C ,  6-S ) :   0.1000
B(  4-C , 11-H ) :   0.9939 B(  5-C ,  6-S ) :   1.1762 B(  5-C , 12-H ) :   0.9665

FINAL SINGLE POINT ENERGY      -666.722214371672

DIPOLE MOMENT
-------------
                                X             Y             Z
Electronic contribution:      3.36633      -2.28279      -0.01719
Nuclear contribution   :     -3.95077       2.35733       0.01928
                        -----------------------------------------
Total Dipole Moment    :     -0.58444       0.07454       0.00209
                        -----------------------------------------
Magnitude (a.u.)       :      0.58918
Magnitude (Debye)      :      1.49757

                             ****ORCA TERMINATED NORMALLY****
TOTAL RUN TIME: 0 days 0 hours 0 minutes 6 seconds 747 msec
