                         Program Version 3.0.3 - RELEASE   -
|  1> ! RI PBE def2-SVP def2-SVP/J NBO PAL2
|  2> % maxcore 2000
|  3> % output
|  4>     # printlevel mini
|  5>     print[ P_Basis ] 0
|  6>     print[ P_SCFInfo ] 1
|  7>     print[ P_SCFIterInfo ] 1
|  8>     print[ P_OrbEn ] 0
|  9>     print[ P_Cartesian ] 0
| 10> end
| 11> *xyz 0 1
| 12>  C        0.8847070000     0.0368160000     0.0653370000
| 13>  C        2.3729120000     0.0415090000     0.0651950000
| 14>  C        3.2366060000     1.1103630000     0.0618470000
| 15>  N        2.9055300000     2.4358040000     0.0578670000
| 16>  N        4.5693480000     0.8031170000     0.0627450000
| 17>  C        4.7412890000    -0.4810500000     0.0666850000
| 18>  S        3.3076550000    -1.4038010000     0.0695810000
| 19>  H        0.4989320000     1.0585670000     0.0629430000
| 20>  H        0.4701940000    -0.4576570000     0.9489710000
| 21>  H        0.4699950000    -0.4619210000    -0.8158100000
| 22>  H        1.9561810000     2.7461570000     0.0559430000
| 23>  H        3.6450050000     3.1101210000     0.0551160000
| 24>  H        5.7143360000    -0.9540130000     0.0680990000
| 25> *
| 26>
| 27>                          ****END OF INPUT****
 Total Charge           Charge          ....    0
 Multiplicity           Mult            ....    1
 Number of Electrons    NEL             ....   60
 Basis Dimension        Dim             ....  132

MULLIKEN ATOMIC CHARGES
-----------------------
   0 C :    0.088145
   1 C :   -0.303390
   2 C :   -0.010753
   3 N :   -0.034136
   4 N :   -0.120402
   5 C :   -0.010310
   6 S :    0.072351
   7 H :    0.002923
   8 H :    0.036841
   9 H :    0.036917
  10 H :    0.092901
  11 H :    0.114264
  12 H :    0.034650
Sum of atomic charges:   -0.0000000

LOEWDIN ATOMIC CHARGES
----------------------
   0 C :   -0.068596
   1 C :   -0.280552
   2 C :   -0.026602
   3 N :   -0.009425
   4 N :   -0.117654
   5 C :   -0.164702
   6 S :    0.409376
   7 H :    0.031635
   8 H :    0.036338
   9 H :    0.036339
  10 H :    0.064667
  11 H :    0.072355
  12 H :    0.016822

  Mayer bond orders larger than 0.1
B(  0-C ,  1-C ) :   1.1141 B(  0-C ,  7-H ) :   0.9458 B(  0-C ,  8-H ) :   0.9436
B(  0-C ,  9-H ) :   0.9436 B(  1-C ,  2-C ) :   1.4525 B(  1-C ,  6-S ) :   1.1039
B(  2-C ,  3-N ) :   1.2767 B(  2-C ,  4-N ) :   1.3485 B(  3-N , 10-H ) :   0.9471
B(  3-N , 11-H ) :   0.9365 B(  4-N ,  5-C ) :   1.6381 B(  4-N ,  6-S ) :   0.1479
B(  5-C ,  6-S ) :   1.1840 B(  5-C , 12-H ) :   0.9602

FINAL SINGLE POINT ENERGY      -662.914945227292

DIPOLE MOMENT
-------------
                                X             Y             Z
Electronic contribution:      5.03333      -3.70489       0.01133
Nuclear contribution   :     -5.71081       4.10279      -0.01348
                        -----------------------------------------
Total Dipole Moment    :     -0.67749       0.39790      -0.00216
                        -----------------------------------------
Magnitude (a.u.)       :      0.78570
Magnitude (Debye)      :      1.99708

                             ****ORCA TERMINATED NORMALLY****
TOTAL RUN TIME: 0 days 0 hours 0 minutes 6 seconds 772 msec
