                         Program Version 3.0.3 - RELEASE   -
|  1> ! RI PBE def2-SVP def2-SVP/J NBO PAL2
|  2> % maxcore 2000
|  3> % output
|  4>     # printlevel mini
|  5>     print[ P_Basis ] 0
|  6>     print[ P_SCFInfo ] 1
|  7>     print[ P_SCFIterInfo ] 1
|  8>     print[ P_OrbEn ] 0
|  9>     print[ P_Cartesian ] 0
| 10> end
| 11> *xyz 0 1
| 12>  C        0.7803930000    -0.0457130000    -0.0232880000
| 13>  C        2.2687120000    -0.0722310000    -0.0233150000
| 14>  C        3.1559830000     0.9719970000    -0.0266870000
| 15>  O        2.8609480000     2.2873970000    -0.0308220000
| 16>  N        4.4756540000     0.6588660000    -0.0257960000
| 17>  C        4.6278710000    -0.6271190000    -0.0217530000
| 18>  S        3.1774510000    -1.5318720000    -0.0187940000
| 19>  H        0.4064770000     0.9819350000    -0.0256410000
| 20>  H        0.3598090000    -0.5321680000     0.8608920000
| 21>  H        0.3596530000    -0.5363390000    -0.9050920000
| 22>  H        1.9064420000     2.3987320000    -0.0314180000
| 23>  H        5.5921050000    -1.1174050000    -0.0202840000
| 24> *
| 25>
| 26>                          ****END OF INPUT****
 Total Charge           Charge          ....    0
 Multiplicity           Mult            ....    1
 Number of Electrons    NEL             ....   60
 Basis Dimension        Dim             ....  127

MULLIKEN ATOMIC CHARGES
-----------------------
   0 C :    0.077310
   1 C :   -0.315484
   2 C :    0.082796
   3 O :   -0.122148
   4 N :   -0.095600
   5 C :   -0.016945
   6 S :    0.089697
   7 H :   -0.000905
   8 H :    0.048234
   9 H :    0.048312
  10 H :    0.160321
  11 H :    0.044415
Sum of atomic charges:   -0.0000000

LOEWDIN ATOMIC CHARGES
----------------------
   0 C :   -0.066682
   1 C :   -0.280252
   2 C :   -0.016659
   3 O :   -0.016478
   4 N :   -0.095069
   5 C :   -0.156715
   6 S :    0.418146
   7 H :    0.028670
   8 H :    0.041316
   9 H :    0.041318
  10 H :    0.082525
  11 H :    0.019879

  Mayer bond orders larger than 0.1
B(  0-C ,  1-C ) :   1.0933 B(  0-C ,  7-H ) :   0.9419 B(  0-C ,  8-H ) :   0.9454
B(  0-C ,  9-H ) :   0.9455 B(  1-C ,  2-C ) :   1.4537 B(  1-C ,  5-C ) :   0.1003
B(  1-C ,  6-S ) :   1.1198 B(  2-C ,  3-O ) :   1.2688 B(  2-C ,  4-N ) :   1.3598
B(  3-O , 10-H ) :   0.9633 B(  4-N ,  5-C ) :   1.6527 B(  4-N ,  6-S ) :   0.1429
B(  5-C ,  6-S ) :   1.1730 B(  5-C , 11-H ) :   0.9610

FINAL SINGLE POINT ENERGY      -682.752640974694

DIPOLE MOMENT
-------------
                                X             Y             Z
Electronic contribution:      5.00786      -1.59151       0.00464
Nuclear contribution   :     -6.13047       1.17655      -0.00344
                        -----------------------------------------
Total Dipole Moment    :     -1.12261      -0.41496       0.00120
                        -----------------------------------------
Magnitude (a.u.)       :      1.19685
Magnitude (Debye)      :      3.04215

                             ****ORCA TERMINATED NORMALLY****
TOTAL RUN TIME: 0 days 0 hours 0 minutes 5 seconds 967 msec
