                         Program Version 3.0.3 - RELEASE   -
|  1> ! RI PBE def2-SVP def2-SVP/J NBO PAL2
|  2> % maxcore 2000
|  3> % output
|  4>     # printlevel mini
|  5>     print[ P_Basis ] 0
|  6>     print[ P_SCFInfo ] 1
|  7>     print[ P_SCFIterInfo ] 1
|  8>     print[ P_OrbEn ] 0
|  9>     print[ P_Cartesian ] 0
| 10> end
| 11> *xyz 0 1
| 12>  C        0.8909650000     0.0105710000    -0.1841130000
| 13>  C        2.3786090000     0.0113610000    -0.1946230000
| 14>  C        3.2175910000     1.0976130000    -0.1114700000
| 15>  N        2.8100380000     2.4276440000    -0.0583480000
| 16>  C        4.5699420000     0.6745490000    -0.1701850000
| 17>  N        4.7828950000    -0.6151510000    -0.2847660000
| 18>  S        3.3454230000    -1.3863570000    -0.3314820000
| 19>  H        0.4918870000     0.6065730000    -1.0108680000
| 20>  H        0.4982420000     0.4319400000     0.7478570000
| 21>  H        0.4875720000    -0.9984040000    -0.2781900000
| 22>  H        1.9042430000     2.5669580000     0.3623640000
| 23>  H        3.4913700000     3.0487670000     0.3493980000
| 24>  H        5.4235340000     1.3449270000    -0.1286630000
| 25> *
| 26>
| 27>                          ****END OF INPUT****
 Total Charge           Charge          ....    0
 Multiplicity           Mult            ....    1
 Number of Electrons    NEL             ....   60
 Basis Dimension        Dim             ....  132

MULLIKEN ATOMIC CHARGES
-----------------------
   0 C :    0.060506
   1 C :   -0.276939
   2 C :   -0.051514
   3 N :   -0.061822
   4 C :    0.057506
   5 N :   -0.282658
   6 S :    0.249720
   7 H :    0.048184
   8 H :    0.036931
   9 H :    0.023251
  10 H :    0.102438
  11 H :    0.108610
  12 H :   -0.014213
Sum of atomic charges:   -0.0000000

LOEWDIN ATOMIC CHARGES
----------------------
   0 C :   -0.071798
   1 C :   -0.252648
   2 C :   -0.069720
   3 N :   -0.029400
   4 C :   -0.065655
   5 N :   -0.271774
   6 S :    0.490213
   7 H :    0.040880
   8 H :    0.035505
   9 H :    0.038184
  10 H :    0.066647
  11 H :    0.070827
  12 H :    0.018737

  Mayer bond orders larger than 0.1
B(  0-C ,  1-C ) :   1.1065 B(  0-C ,  7-H ) :   0.9470 B(  0-C ,  8-H ) :   0.9459
B(  0-C ,  9-H ) :   0.9359 B(  1-C ,  2-C ) :   1.4848 B(  1-C ,  5-N ) :   0.1544
B(  1-C ,  6-S ) :   1.1195 B(  2-C ,  3-N ) :   1.2261 B(  2-C ,  4-C ) :   1.2106
B(  3-N , 10-H ) :   0.9461 B(  3-N , 11-H ) :   0.9467 B(  4-C ,  5-N ) :   1.5903
B(  4-C , 12-H ) :   0.9813 B(  5-N ,  6-S ) :   1.2176

FINAL SINGLE POINT ENERGY      -662.903597188176

DIPOLE MOMENT
-------------
                                X             Y             Z
Electronic contribution:      5.17191      -5.17073      -0.69855
Nuclear contribution   :     -6.15354       6.14886       1.19331
                        -----------------------------------------
Total Dipole Moment    :     -0.98162       0.97813       0.49476
                        -----------------------------------------
Magnitude (a.u.)       :      1.47143
Magnitude (Debye)      :      3.74008

                             ****ORCA TERMINATED NORMALLY****
TOTAL RUN TIME: 0 days 0 hours 0 minutes 6 seconds 561 msec
