                         Program Version 3.0.3 - RELEASE   -
|  1> ! RI PBE def2-SVP def2-SVP/J NBO PAL2
|  2> % maxcore 2000
|  3> % output
|  4>     # printlevel mini
|  5>     print[ P_Basis ] 0
|  6>     print[ P_SCFInfo ] 1
|  7>     print[ P_SCFIterInfo ] 1
|  8>     print[ P_OrbEn ] 0
|  9>     print[ P_Cartesian ] 0
| 10> end
| 11> *xyz 0 1
| 12>  C        0.7850850000     0.0194030000    -0.0029640000
| 13>  C        2.2736600000     0.0232970000    -0.0078920000
| 14>  C        3.1286960000     1.0956390000    -0.0066960000
| 15>  O        2.8143970000     2.4129860000    -0.0007110000
| 16>  C        4.4820520000     0.6753460000    -0.0127690000
| 17>  N        4.6826340000    -0.6178340000    -0.0182750000
| 18>  S        3.2381080000    -1.3880930000    -0.0163910000
| 19>  H        0.3843680000     1.0372680000     0.0018440000
| 20>  H        0.3838800000    -0.4853200000     0.8793150000
| 21>  H        0.3780310000    -0.4792600000    -0.8860080000
| 22>  H        1.8588860000     2.5177660000     0.0029720000
| 23>  H        5.3277120000     1.3540020000    -0.0130250000
| 24> *
| 25>
| 26>                          ****END OF INPUT****
 Total Charge           Charge          ....    0
 Multiplicity           Mult            ....    1
 Number of Electrons    NEL             ....   60
 Basis Dimension        Dim             ....  127

MULLIKEN ATOMIC CHARGES
-----------------------
   0 C :    0.080778
   1 C :   -0.294898
   2 C :    0.046880
   3 O :   -0.151974
   4 C :    0.068401
   5 N :   -0.276195
   6 S :    0.255432
   7 H :   -0.001307
   8 H :    0.052039
   9 H :    0.052015
  10 H :    0.163386
  11 H :    0.005444
Sum of atomic charges:   -0.0000000

LOEWDIN ATOMIC CHARGES
----------------------
   0 C :   -0.067085
   1 C :   -0.262540
   2 C :   -0.041562
   3 O :   -0.027889
   4 C :   -0.053059
   5 N :   -0.261716
   6 S :    0.486774
   7 H :    0.027755
   8 H :    0.044637
   9 H :    0.044634
  10 H :    0.082714
  11 H :    0.027336

  Mayer bond orders larger than 0.1
B(  0-C ,  1-C ) :   1.0857 B(  0-C ,  7-H ) :   0.9383 B(  0-C ,  8-H ) :   0.9450
B(  0-C ,  9-H ) :   0.9450 B(  1-C ,  2-C ) :   1.4682 B(  1-C ,  5-N ) :   0.1571
B(  1-C ,  6-S ) :   1.1125 B(  2-C ,  3-O ) :   1.2356 B(  2-C ,  4-C ) :   1.2145
B(  3-O , 10-H ) :   0.9646 B(  4-C ,  5-N ) :   1.6030 B(  4-C , 11-H ) :   0.9753
B(  5-N ,  6-S ) :   1.2048

FINAL SINGLE POINT ENERGY      -682.740359504867

DIPOLE MOMENT
-------------
                                X             Y             Z
Electronic contribution:      5.06850      -2.86126      -0.02754
Nuclear contribution   :     -6.48024       3.31727       0.03404
                        -----------------------------------------
Total Dipole Moment    :     -1.41174       0.45601       0.00650
                        -----------------------------------------
Magnitude (a.u.)       :      1.48357
Magnitude (Debye)      :      3.77094

                             ****ORCA TERMINATED NORMALLY****
TOTAL RUN TIME: 0 days 0 hours 0 minutes 6 seconds 406 msec
