                         Program Version 3.0.3 - RELEASE   -
|  1> ! RI PBE def2-SVP def2-SVP/J NBO PAL2
|  2> % maxcore 2000
|  3> % output
|  4>     # printlevel mini
|  5>     print[ P_Basis ] 0
|  6>     print[ P_SCFInfo ] 1
|  7>     print[ P_SCFIterInfo ] 1
|  8>     print[ P_OrbEn ] 0
|  9>     print[ P_Cartesian ] 0
| 10> end
| 11> *xyz 0 1
| 12>  C        0.7796350000     0.0426070000    -0.1297790000
| 13>  C        2.0236610000     0.0131290000     0.3454020000
| 14>  C        2.7421500000    -1.1406560000     0.8411070000
| 15>  C        4.0253690000    -1.1546860000     1.3282860000
| 16>  C        4.4572160000    -2.4352610000     1.7404480000
| 17>  C        3.4966700000    -3.3861000000     1.5628880000
| 18>  S        2.0715200000    -2.7262010000     0.8963190000
| 19>  H        0.3383350000     0.9681170000    -0.4764560000
| 20>  H        0.1631280000    -0.8483220000    -0.1890010000
| 21>  H        2.5949080000     0.9379040000     0.3809720000
| 22>  H        4.6338730000    -0.2606550000     1.3840690000
| 23>  H        5.4360550000    -2.6448950000     2.1507620000
| 24>  H        3.5505680000    -4.4403790000     1.7883830000
| 25> *
| 26>
| 27>                          ****END OF INPUT****
 Total Charge           Charge          ....    0
 Multiplicity           Mult            ....    1
 Number of Electrons    NEL             ....   58
 Basis Dimension        Dim             ....  132

MULLIKEN ATOMIC CHARGES
-----------------------
   0 C :   -0.043851
   1 C :    0.021915
   2 C :   -0.117383
   3 C :    0.013183
   4 C :    0.042266
   5 C :   -0.085465
   6 S :    0.109982
   7 H :    0.027928
   8 H :    0.026450
   9 H :   -0.005919
  10 H :   -0.014969
  11 H :   -0.008179
  12 H :    0.034043
Sum of atomic charges:   -0.0000000

LOEWDIN ATOMIC CHARGES
----------------------
   0 C :   -0.061054
   1 C :   -0.042597
   2 C :   -0.191405
   3 C :   -0.061966
   4 C :   -0.069969
   5 C :   -0.195338
   6 S :    0.447368
   7 H :    0.028252
   8 H :    0.020700
   9 H :    0.036849
  10 H :    0.030415
  11 H :    0.031754
  12 H :    0.026990

  Mayer bond orders larger than 0.1
B(  0-C ,  1-C ) :   1.8997 B(  0-C ,  7-H ) :   0.9373 B(  0-C ,  8-H ) :   0.9453
B(  1-C ,  2-C ) :   1.1573 B(  1-C ,  9-H ) :   0.9517 B(  2-C ,  3-C ) :   1.4680
B(  2-C ,  6-S ) :   1.1325 B(  3-C ,  4-C ) :   1.2681 B(  3-C , 10-H ) :   0.9920
B(  4-C ,  5-C ) :   1.5212 B(  4-C , 11-H ) :   0.9881 B(  5-C ,  6-S ) :   1.1784
B(  5-C , 12-H ) :   0.9669

FINAL SINGLE POINT ENERGY      -629.642945879765

DIPOLE MOMENT
-------------
                                X             Y             Z
Electronic contribution:     -0.46647      -3.85951       0.57670
Nuclear contribution   :      0.69204       3.86560      -0.49036
                        -----------------------------------------
Total Dipole Moment    :      0.22557       0.00609       0.08634
                        -----------------------------------------
Magnitude (a.u.)       :      0.24161
Magnitude (Debye)      :      0.61412

                             ****ORCA TERMINATED NORMALLY****
TOTAL RUN TIME: 0 days 0 hours 0 minutes 6 seconds 269 msec
