                         Program Version 3.0.3 - RELEASE   -
|  1> ! RI PBE def2-SVP def2-SVP/J NBO PAL2
|  2> % maxcore 2000
|  3> % output
|  4>     # printlevel mini
|  5>     print[ P_Basis ] 0
|  6>     print[ P_SCFInfo ] 1
|  7>     print[ P_SCFIterInfo ] 1
|  8>     print[ P_OrbEn ] 0
|  9>     print[ P_Cartesian ] 0
| 10> end
| 11> *xyz 0 1
| 12>  C        0.8400800000     0.0140920000     0.0448790000
| 13>  C        2.0432310000    -0.0155610000     0.0483620000
| 14>  C        3.4497300000    -0.0621660000     0.0523600000
| 15>  C        4.3375400000     0.9868530000     0.0534530000
| 16>  C        5.6831270000     0.5654910000     0.0577830000
| 17>  C        5.8057070000    -0.7945720000     0.0599280000
| 18>  S        4.2900910000    -1.5666370000     0.0567000000
| 19>  H       -0.2236020000     0.0449750000     0.0417510000
| 20>  H        4.0151350000     2.0190970000     0.0511810000
| 21>  H        6.5285610000     1.2402990000     0.0592580000
| 22>  H        6.7123100000    -1.3806730000     0.0632460000
| 23> *
| 24>
| 25>                          ****END OF INPUT****
 Total Charge           Charge          ....    0
 Multiplicity           Mult            ....    1
 Number of Electrons    NEL             ....   56
 Basis Dimension        Dim             ....  122

MULLIKEN ATOMIC CHARGES
-----------------------
   0 C :   -0.442312
   1 C :    0.419944
   2 C :   -0.189587
   3 C :    0.073252
   4 C :    0.030495
   5 C :   -0.079193
   6 S :    0.149886
   7 H :    0.008764
   8 H :   -0.006246
   9 H :   -0.001185
  10 H :    0.036182
Sum of atomic charges:    0.0000000

LOEWDIN ATOMIC CHARGES
----------------------
   0 C :   -0.056048
   1 C :   -0.036125
   2 C :   -0.208254
   3 C :   -0.044560
   4 C :   -0.067855
   5 C :   -0.196141
   6 S :    0.472318
   7 H :    0.037130
   8 H :    0.036529
   9 H :    0.034371
  10 H :    0.028634

  Mayer bond orders larger than 0.1
B(  0-C ,  1-C ) :   2.2634 B(  0-C ,  7-H ) :   1.0914 B(  1-C ,  2-C ) :   1.0596
B(  1-C ,  7-H ) :  -0.1004 B(  2-C ,  3-C ) :   1.4641 B(  2-C ,  5-C ) :   0.1043
B(  2-C ,  6-S ) :   1.1346 B(  3-C ,  4-C ) :   1.2771 B(  3-C ,  8-H ) :   0.9967
B(  4-C ,  5-C ) :   1.5060 B(  4-C ,  9-H ) :   0.9865 B(  5-C ,  6-S ) :   1.1837
B(  5-C , 10-H ) :   0.9672

FINAL SINGLE POINT ENERGY      -628.397521766636

DIPOLE MOMENT
-------------
                                X             Y             Z
Electronic contribution:     -1.07178      -3.12134       0.00117
Nuclear contribution   :      1.36528       3.22555      -0.00058
                        -----------------------------------------
Total Dipole Moment    :      0.29350       0.10422       0.00059
                        -----------------------------------------
Magnitude (a.u.)       :      0.31145
Magnitude (Debye)      :      0.79166

                             ****ORCA TERMINATED NORMALLY****
TOTAL RUN TIME: 0 days 0 hours 0 minutes 6 seconds 35 msec
