                         Program Version 3.0.3 - RELEASE   -
|  1> ! RI PBE def2-SVP def2-SVP/J NBO PAL2
|  2> % maxcore 2000
|  3> % output
|  4>     # printlevel mini
|  5>     print[ P_Basis ] 0
|  6>     print[ P_SCFInfo ] 1
|  7>     print[ P_SCFIterInfo ] 1
|  8>     print[ P_OrbEn ] 0
|  9>     print[ P_Cartesian ] 0
| 10> end
| 11> *xyz 0 1
| 12>  C        3.5451190000     0.1058520000    -1.2342330000
| 13>  C        2.5582140000    -0.0435880000    -0.0804550000
| 14>  C        2.9430510000    -1.0906810000     0.9131800000
| 15>  C        3.3652550000    -0.9195200000     2.2007080000
| 16>  C        3.6704240000    -2.1354900000     2.8627590000
| 17>  C        3.4751160000    -3.2229880000     2.0674930000
| 18>  S        2.9220260000    -2.7642370000     0.5183890000
| 19>  H        3.2260420000     0.8969690000    -1.9168600000
| 20>  H        3.6254740000    -0.8206630000    -1.8071500000
| 21>  H        4.5418760000     0.3541680000    -0.8634890000
| 22>  H        1.5614470000    -0.2575570000    -0.4805580000
| 23>  H        2.4739620000     0.9049450000     0.4577100000
| 24>  H        3.4514740000     0.0576120000     2.6602520000
| 25>  H        4.0176780000    -2.1994430000     3.8856920000
| 26>  H        3.6235420000    -4.2647780000     2.3071720000
| 27> *
| 28>
| 29>                          ****END OF INPUT****
 Total Charge           Charge          ....    0
 Multiplicity           Mult            ....    1
 Number of Electrons    NEL             ....   60
 Basis Dimension        Dim             ....  142

MULLIKEN ATOMIC CHARGES
-----------------------
   0 C :   -0.029002
   1 C :    0.075443
   2 C :   -0.226391
   3 C :    0.034351
   4 C :    0.025246
   5 C :   -0.089235
   6 S :    0.097554
   7 H :    0.025575
   8 H :    0.028424
   9 H :    0.027810
  10 H :    0.023099
  11 H :    0.012134
  12 H :   -0.022204
  13 H :   -0.010328
  14 H :    0.027524
Sum of atomic charges:    0.0000000

LOEWDIN ATOMIC CHARGES
----------------------
   0 C :   -0.063177
   1 C :   -0.050225
   2 C :   -0.189673
   3 C :   -0.081022
   4 C :   -0.072731
   5 C :   -0.208173
   6 S :    0.432667
   7 H :    0.027508
   8 H :    0.024435
   9 H :    0.028719
  10 H :    0.033832
  11 H :    0.036595
  12 H :    0.027169
  13 H :    0.029944
  14 H :    0.024132

  Mayer bond orders larger than 0.1
B(  0-C ,  1-C ) :   1.1073 B(  0-C ,  7-H ) :   0.9609 B(  0-C ,  8-H ) :   0.9683
B(  0-C ,  9-H ) :   0.9662 B(  1-C ,  2-C ) :   1.0710 B(  1-C , 10-H ) :   0.9170
B(  1-C , 11-H ) :   0.9202 B(  2-C ,  3-C ) :   1.5549 B(  2-C ,  5-C ) :   0.1011
B(  2-C ,  6-S ) :   1.1633 B(  3-C ,  4-C ) :   1.2591 B(  3-C , 12-H ) :   0.9909
B(  4-C ,  5-C ) :   1.5425 B(  4-C , 13-H ) :   0.9859 B(  5-C ,  6-S ) :   1.1652
B(  5-C , 14-H ) :   0.9693

FINAL SINGLE POINT ENERGY      -630.859939282900

DIPOLE MOMENT
-------------
                                X             Y             Z
Electronic contribution:     -1.10946      -6.96457       2.80517
Nuclear contribution   :      1.11867       7.19274      -2.81352
                        -----------------------------------------
Total Dipole Moment    :      0.00921       0.22817      -0.00834
                        -----------------------------------------
Magnitude (a.u.)       :      0.22851
Magnitude (Debye)      :      0.58082

                             ****ORCA TERMINATED NORMALLY****
TOTAL RUN TIME: 0 days 0 hours 0 minutes 7 seconds 461 msec
