                         Program Version 3.0.3 - RELEASE   -
|  1> ! RI PBE def2-SVP def2-SVP/J NBO PAL2
|  2> % maxcore 2000
|  3> % output
|  4>     # printlevel mini
|  5>     print[ P_Basis ] 0
|  6>     print[ P_SCFInfo ] 1
|  7>     print[ P_SCFIterInfo ] 1
|  8>     print[ P_OrbEn ] 0
|  9>     print[ P_Cartesian ] 0
| 10> end
| 11> *xyz 0 1
| 12>  C        2.8072790000    -1.3398840000     0.3595370000
| 13>  C        2.4208140000    -0.0881340000     0.1244880000
| 14>  C        3.0938140000     0.8713400000    -0.7286090000
| 15>  C        2.7066020000     2.1667570000    -0.9800900000
| 16>  C        3.6065790000     2.8005410000    -1.8600410000
| 17>  N        4.6230000000     2.0819020000    -2.2773290000
| 18>  S        4.5313070000     0.5872280000    -1.6132400000
| 19>  H        2.2365590000    -1.9850220000     1.0152080000
| 20>  H        3.6996540000    -1.7632730000    -0.0897520000
| 21>  H        1.5180670000     0.2855550000     0.6010140000
| 22>  H        1.8260500000     2.6286170000    -0.5538930000
| 23>  H        3.5173750000     3.8235640000    -2.2090840000
| 24> *
| 25>
| 26>                          ****END OF INPUT****
 Total Charge           Charge          ....    0
 Multiplicity           Mult            ....    1
 Number of Electrons    NEL             ....   58
 Basis Dimension        Dim             ....  127

MULLIKEN ATOMIC CHARGES
-----------------------
   0 C :   -0.034131
   1 C :    0.030557
   2 C :   -0.120861
   3 C :   -0.042168
   4 C :    0.094189
   5 N :   -0.281642
   6 S :    0.276076
   7 H :    0.038852
   8 H :    0.031041
   9 H :   -0.000510
  10 H :   -0.006752
  11 H :    0.015350
Sum of atomic charges:   -0.0000000

LOEWDIN ATOMIC CHARGES
----------------------
   0 C :   -0.039768
   1 C :   -0.040276
   2 C :   -0.193293
   3 C :   -0.087170
   4 C :   -0.035777
   5 N :   -0.263340
   6 S :    0.505259
   7 H :    0.032237
   8 H :    0.023738
   9 H :    0.037783
  10 H :    0.034043
  11 H :    0.026564

  Mayer bond orders larger than 0.1
B(  0-C ,  1-C ) :   1.9081 B(  0-C ,  7-H ) :   0.9403 B(  0-C ,  8-H ) :   0.9476
B(  1-C ,  2-C ) :   1.1324 B(  1-C ,  9-H ) :   0.9499 B(  2-C ,  3-C ) :   1.4663
B(  2-C ,  5-N ) :   0.1469 B(  2-C ,  6-S ) :   1.1393 B(  3-C ,  4-C ) :   1.2483
B(  3-C , 10-H ) :   0.9870 B(  4-C ,  5-N ) :   1.5887 B(  4-C , 11-H ) :   0.9723
B(  5-N ,  6-S ) :   1.2036

FINAL SINGLE POINT ENERGY      -645.660308361634

DIPOLE MOMENT
-------------
                                X             Y             Z
Electronic contribution:      4.10687       1.36957      -3.41103
Nuclear contribution   :     -4.84015      -1.56667       3.99307
                        -----------------------------------------
Total Dipole Moment    :     -0.73328      -0.19710       0.58204
                        -----------------------------------------
Magnitude (a.u.)       :      0.95672
Magnitude (Debye)      :      2.43180

                             ****ORCA TERMINATED NORMALLY****
TOTAL RUN TIME: 0 days 0 hours 0 minutes 6 seconds 369 msec
