                         Program Version 3.0.3 - RELEASE   -
|  1> ! RI PBE def2-SVP def2-SVP/J NBO PAL2
|  2> % maxcore 2000
|  3> % output
|  4>     # printlevel mini
|  5>     print[ P_Basis ] 0
|  6>     print[ P_SCFInfo ] 1
|  7>     print[ P_SCFIterInfo ] 1
|  8>     print[ P_OrbEn ] 0
|  9>     print[ P_Cartesian ] 0
| 10> end
| 11> *xyz 0 1
| 12>  C        0.9825800000    -0.0146060000     0.0166420000
| 13>  C        2.1852370000    -0.0045640000     0.0195340000
| 14>  C        3.5921450000    -0.0173660000     0.0228700000
| 15>  C        4.4693540000     1.0432530000     0.0241450000
| 16>  C        5.7983310000     0.5795420000     0.0276390000
| 17>  N        5.9675840000    -0.7244160000     0.0290200000
| 18>  S        4.5140520000    -1.4612430000     0.0261200000
| 19>  H       -0.0819500000    -0.0179500000     0.0140370000
| 20>  H        4.1654600000     2.0801420000     0.0226470000
| 21>  H        6.6752170000     1.2174090000     0.0292370000
| 22> *
| 23>
| 24>                          ****END OF INPUT****
 Total Charge           Charge          ....    0
 Multiplicity           Mult            ....    1
 Number of Electrons    NEL             ....   56
 Basis Dimension        Dim             ....  117

MULLIKEN ATOMIC CHARGES
-----------------------
   0 C :   -0.426006
   1 C :    0.423330
   2 C :   -0.185025
   3 C :    0.011772
   4 C :    0.094352
   5 N :   -0.280987
   6 S :    0.322312
   7 H :    0.016375
   8 H :    0.002940
   9 H :    0.020937
Sum of atomic charges:   -0.0000000

LOEWDIN ATOMIC CHARGES
----------------------
   0 C :   -0.036944
   1 C :   -0.037662
   2 C :   -0.207747
   3 C :   -0.069174
   4 C :   -0.031980
   5 N :   -0.261409
   6 S :    0.534417
   7 H :    0.040602
   8 H :    0.040550
   9 H :    0.029347

  Mayer bond orders larger than 0.1
B(  0-C ,  1-C ) :   2.2625 B(  0-C ,  7-H ) :   1.0894 B(  1-C ,  2-C ) :   1.0462
B(  2-C ,  3-C ) :   1.4608 B(  2-C ,  5-N ) :   0.1573 B(  2-C ,  6-S ) :   1.1345
B(  3-C ,  4-C ) :   1.2486 B(  3-C ,  8-H ) :   0.9933 B(  4-C ,  5-N ) :   1.5700
B(  4-C ,  9-H ) :   0.9710 B(  5-N ,  6-S ) :   1.2146

FINAL SINGLE POINT ENERGY      -644.415072154209

DIPOLE MOMENT
-------------
                                X             Y             Z
Electronic contribution:      0.75628      -3.50074       0.00441
Nuclear contribution   :     -1.34984       4.00087      -0.00630
                        -----------------------------------------
Total Dipole Moment    :     -0.59357       0.50013      -0.00189
                        -----------------------------------------
Magnitude (a.u.)       :      0.77618
Magnitude (Debye)      :      1.97289

                             ****ORCA TERMINATED NORMALLY****
TOTAL RUN TIME: 0 days 0 hours 0 minutes 6 seconds 7 msec
