                         Program Version 3.0.3 - RELEASE   -
|  1> ! RI PBE def2-SVP def2-SVP/J NBO PAL2
|  2> % maxcore 2000
|  3> % output
|  4>     # printlevel mini
|  5>     print[ P_Basis ] 0
|  6>     print[ P_SCFInfo ] 1
|  7>     print[ P_SCFIterInfo ] 1
|  8>     print[ P_OrbEn ] 0
|  9>     print[ P_Cartesian ] 0
| 10> end
| 11> *xyz 0 1
| 12>  C        0.8506450000     0.0230300000     0.2211850000
| 13>  C        2.3677170000     0.0596020000     0.0528090000
| 14>  C        2.7897420000     0.2794280000    -1.3631560000
| 15>  C        2.9931780000     1.4609400000    -2.0277380000
| 16>  C        3.3406220000     1.2272790000    -3.3755580000
| 17>  N        3.4111870000    -0.0271070000    -3.7580390000
| 18>  S        3.0527880000    -0.9830480000    -2.4775190000
| 19>  H        0.5838110000    -0.1282610000     1.2694290000
| 20>  H        0.4115130000    -0.7884870000    -0.3626330000
| 21>  H        0.3985870000     0.9581740000    -0.1150870000
| 22>  H        2.8000310000    -0.8727430000     0.4269530000
| 23>  H        2.7874210000     0.8622620000     0.6658380000
| 24>  H        2.9027730000     2.4394080000    -1.5743850000
| 25>  H        3.5545060000     2.0026230000    -4.1037290000
| 26> *
| 27>
| 28>                          ****END OF INPUT****
 Total Charge           Charge          ....    0
 Multiplicity           Mult            ....    1
 Number of Electrons    NEL             ....   60
 Basis Dimension        Dim             ....  137

MULLIKEN ATOMIC CHARGES
-----------------------
   0 C :   -0.007486
   1 C :    0.061297
   2 C :   -0.220500
   3 C :   -0.026229
   4 C :    0.083213
   5 N :   -0.291394
   6 S :    0.268862
   7 H :    0.029507
   8 H :    0.025787
   9 H :    0.026050
  10 H :    0.021329
  11 H :    0.027121
  12 H :   -0.011698
  13 H :    0.014142
Sum of atomic charges:    0.0000000

LOEWDIN ATOMIC CHARGES
----------------------
   0 C :   -0.056405
   1 C :   -0.050862
   2 C :   -0.189680
   3 C :   -0.104710
   4 C :   -0.037721
   5 N :   -0.274846
   6 S :    0.498385
   7 H :    0.029634
   8 H :    0.027871
   9 H :    0.028544
  10 H :    0.033713
  11 H :    0.039667
  12 H :    0.031508
  13 H :    0.024902

  Mayer bond orders larger than 0.1
B(  0-C ,  1-C ) :   1.1082 B(  0-C ,  7-H ) :   0.9620 B(  0-C ,  8-H ) :   0.9655
B(  0-C ,  9-H ) :   0.9681 B(  1-C ,  2-C ) :   1.0562 B(  1-C , 10-H ) :   0.9211
B(  1-C , 11-H ) :   0.9196 B(  2-C ,  3-C ) :   1.5287 B(  2-C ,  5-N ) :   0.1525
B(  2-C ,  6-S ) :   1.1808 B(  3-C ,  4-C ) :   1.2427 B(  3-C , 12-H ) :   0.9910
B(  4-C ,  5-N ) :   1.5988 B(  4-C , 13-H ) :   0.9721 B(  5-N ,  6-S ) :   1.1996

FINAL SINGLE POINT ENERGY      -646.878892693610

DIPOLE MOMENT
-------------
                                X             Y             Z
Electronic contribution:      4.92855      -3.30177      -7.85276
Nuclear contribution   :     -5.23739       3.68996       8.85778
                        -----------------------------------------
Total Dipole Moment    :     -0.30884       0.38819       1.00503
                        -----------------------------------------
Magnitude (a.u.)       :      1.12078
Magnitude (Debye)      :      2.84880

                             ****ORCA TERMINATED NORMALLY****
TOTAL RUN TIME: 0 days 0 hours 0 minutes 6 seconds 652 msec
