                         Program Version 3.0.3 - RELEASE   -
|  1> ! RI PBE def2-SVP def2-SVP/J NBO PAL2
|  2> % maxcore 2000
|  3> % output
|  4>     # printlevel mini
|  5>     print[ P_Basis ] 0
|  6>     print[ P_SCFInfo ] 1
|  7>     print[ P_SCFIterInfo ] 1
|  8>     print[ P_OrbEn ] 0
|  9>     print[ P_Cartesian ] 0
| 10> end
| 11> *xyz 0 1
| 12>  C        1.8197820000    -0.7170340000     1.0090360000
| 13>  C        2.3568430000     0.0991540000     0.1047730000
| 14>  C        3.0019170000    -0.2957520000    -1.1386000000
| 15>  C        3.5323520000     0.6131750000    -2.0193600000
| 16>  S        4.2213080000    -0.1320830000    -3.3844060000
| 17>  C        3.8157430000    -1.6890220000    -2.8099500000
| 18>  C        3.1750220000    -1.6302010000    -1.6133000000
| 19>  H        1.3597830000    -0.3265130000     1.9081430000
| 20>  H        1.8184120000    -1.7945320000     0.8883900000
| 21>  H        2.3244460000     1.1704740000     0.2874820000
| 22>  H        3.5446690000     1.6884620000    -1.9187750000
| 23>  H        4.0713780000    -2.5657620000    -3.3853890000
| 24>  H        2.8353460000    -2.5100860000    -1.0835530000
| 25> *
| 26>
| 27>                          ****END OF INPUT****
 Total Charge           Charge          ....    0
 Multiplicity           Mult            ....    1
 Number of Electrons    NEL             ....   58
 Basis Dimension        Dim             ....  132

MULLIKEN ATOMIC CHARGES
-----------------------
   0 C :   -0.036270
   1 C :    0.000506
   2 C :    0.055311
   3 C :   -0.137843
   4 S :    0.105617
   5 C :   -0.093661
   6 C :    0.033541
   7 H :    0.022897
   8 H :    0.020255
   9 H :   -0.014015
  10 H :    0.026969
  11 H :    0.030053
  12 H :   -0.013358
Sum of atomic charges:   -0.0000000

LOEWDIN ATOMIC CHARGES
----------------------
   0 C :   -0.056652
   1 C :   -0.027218
   2 C :   -0.073234
   3 C :   -0.202178
   4 S :    0.452223
   5 C :   -0.196974
   6 C :   -0.058733
   7 H :    0.026659
   8 H :    0.021588
   9 H :    0.030878
  10 H :    0.026037
  11 H :    0.026734
  12 H :    0.030871

  Mayer bond orders larger than 0.1
B(  0-C ,  1-C ) :   1.9187 B(  0-C ,  7-H ) :   0.9356 B(  0-C ,  8-H ) :   0.9425
B(  1-C ,  2-C ) :   1.1247 B(  1-C ,  9-H ) :   0.9565 B(  2-C ,  3-C ) :   1.4718
B(  2-C ,  6-C ) :   1.2538 B(  3-C ,  4-S ) :   1.1786 B(  3-C , 10-H ) :   0.9642
B(  4-S ,  5-C ) :   1.1779 B(  5-C ,  6-C ) :   1.5534 B(  5-C , 11-H ) :   0.9622
B(  6-C , 12-H ) :   0.9873

FINAL SINGLE POINT ENERGY      -629.640735108344

DIPOLE MOMENT
-------------
                                X             Y             Z
Electronic contribution:      3.66155       1.35810      -6.63874
Nuclear contribution   :     -3.65811      -1.41857       6.63146
                        -----------------------------------------
Total Dipole Moment    :      0.00344      -0.06047      -0.00728
                        -----------------------------------------
Magnitude (a.u.)       :      0.06101
Magnitude (Debye)      :      0.15506

                             ****ORCA TERMINATED NORMALLY****
TOTAL RUN TIME: 0 days 0 hours 0 minutes 6 seconds 288 msec
