                         Program Version 3.0.3 - RELEASE   -
|  1> ! RI PBE def2-SVP def2-SVP/J NBO PAL2
|  2> % maxcore 2000
|  3> % output
|  4>     # printlevel mini
|  5>     print[ P_Basis ] 0
|  6>     print[ P_SCFInfo ] 1
|  7>     print[ P_SCFIterInfo ] 1
|  8>     print[ P_OrbEn ] 0
|  9>     print[ P_Cartesian ] 0
| 10> end
| 11> *xyz 0 1
| 12>  C        1.0100300000    -0.0432450000    -0.0630290000
| 13>  C        2.2124790000    -0.0174670000    -0.0602750000
| 14>  C        3.6300070000     0.0004940000    -0.0571140000
| 15>  C        4.3845980000     1.1485180000    -0.0566360000
| 16>  S        6.0473010000     0.8076940000    -0.0525380000
| 17>  C        5.7743880000    -0.8770720000    -0.0513730000
| 18>  C        4.4467520000    -1.1690090000    -0.0540480000
| 19>  H       -0.0539030000    -0.0634490000    -0.0655120000
| 20>  H        4.0247610000     2.1656030000    -0.0585200000
| 21>  H        6.6065250000    -1.5642080000    -0.0487770000
| 22>  H        4.0452720000    -2.1729690000    -0.0538890000
| 23> *
| 24>
| 25>                          ****END OF INPUT****
 Total Charge           Charge          ....    0
 Multiplicity           Mult            ....    1
 Number of Electrons    NEL             ....   56
 Basis Dimension        Dim             ....  122

MULLIKEN ATOMIC CHARGES
-----------------------
   0 C :   -0.458993
   1 C :    0.418070
   2 C :   -0.040097
   3 C :   -0.077111
   4 S :    0.114092
   5 C :   -0.097354
   6 C :    0.073042
   7 H :    0.004633
   8 H :    0.029980
   9 H :    0.039096
  10 H :   -0.005359
Sum of atomic charges:   -0.0000000

LOEWDIN ATOMIC CHARGES
----------------------
   0 C :   -0.067168
   1 C :   -0.012732
   2 C :   -0.088825
   3 C :   -0.184960
   4 S :    0.467104
   5 C :   -0.199890
   6 C :   -0.047121
   7 H :    0.035537
   8 H :    0.031544
   9 H :    0.029591
  10 H :    0.036921

  Mayer bond orders larger than 0.1
B(  0-C ,  1-C ) :   2.2668 B(  0-C ,  7-H ) :   1.0947 B(  1-C ,  2-C ) :   1.0055
B(  1-C ,  7-H ) :  -0.1047 B(  2-C ,  3-C ) :   1.4742 B(  2-C ,  6-C ) :   1.2607
B(  3-C ,  4-S ) :   1.1827 B(  3-C ,  8-H ) :   0.9702 B(  4-S ,  5-C ) :   1.1829
B(  5-C ,  6-C ) :   1.5249 B(  5-C ,  9-H ) :   0.9625 B(  6-C , 10-H ) :   0.9975

FINAL SINGLE POINT ENERGY      -628.395952641509

DIPOLE MOMENT
-------------
                                X             Y             Z
Electronic contribution:      2.70643       1.92143       0.00409
Nuclear contribution   :     -2.51237      -1.99604      -0.00368
                        -----------------------------------------
Total Dipole Moment    :      0.19406      -0.07460       0.00041
                        -----------------------------------------
Magnitude (a.u.)       :      0.20791
Magnitude (Debye)      :      0.52846

                             ****ORCA TERMINATED NORMALLY****
TOTAL RUN TIME: 0 days 0 hours 0 minutes 5 seconds 953 msec
