                         Program Version 3.0.3 - RELEASE   -
|  1> ! RI PBE def2-SVP def2-SVP/J NBO PAL2
|  2> % maxcore 2000
|  3> % output
|  4>     # printlevel mini
|  5>     print[ P_Basis ] 0
|  6>     print[ P_SCFInfo ] 1
|  7>     print[ P_SCFIterInfo ] 1
|  8>     print[ P_OrbEn ] 0
|  9>     print[ P_Cartesian ] 0
| 10> end
| 11> *xyz 0 1
| 12>  C        3.6355610000    -0.1060690000    -1.0878090000
| 13>  C        2.6026770000     0.1788700000    -0.0021290000
| 14>  C        3.0379410000    -0.2752450000     1.3575060000
| 15>  C        3.3651560000     0.5595700000     2.3883670000
| 16>  S        3.8397600000    -0.2939770000     3.7877460000
| 17>  C        3.6093280000    -1.7982910000     3.0195130000
| 18>  C        3.1839790000    -1.6400290000     1.7354620000
| 19>  H        3.2773950000     0.2259800000    -2.0652120000
| 20>  H        3.8533020000    -1.1744540000    -1.1557830000
| 21>  H        4.5751730000     0.4089380000    -0.8757150000
| 22>  H        1.6597490000    -0.3149810000    -0.2615790000
| 23>  H        2.3889950000     1.2506780000     0.0292880000
| 24>  H        3.3466080000     1.6396030000     2.3909710000
| 25>  H        3.7936980000    -2.7183510000     3.5529860000
| 26>  H        2.9738790000    -2.4722610000     1.0747790000
| 27> *
| 28>
| 29>                          ****END OF INPUT****
 Total Charge           Charge          ....    0
 Multiplicity           Mult            ....    1
 Number of Electrons    NEL             ....   60
 Basis Dimension        Dim             ....  142

MULLIKEN ATOMIC CHARGES
-----------------------
   0 C :   -0.017151
   1 C :    0.065940
   2 C :   -0.053692
   3 C :   -0.134914
   4 S :    0.088317
   5 C :   -0.092208
   6 C :    0.029754
   7 H :    0.019034
   8 H :    0.022439
   9 H :    0.023911
  10 H :    0.015539
  11 H :    0.003172
  12 H :    0.019474
  13 H :    0.027189
  14 H :   -0.016804
Sum of atomic charges:    0.0000000

LOEWDIN ATOMIC CHARGES
----------------------
   0 C :   -0.059622
   1 C :   -0.036336
   2 C :   -0.068882
   3 C :   -0.216647
   4 S :    0.440454
   5 C :   -0.203504
   6 C :   -0.073160
   7 H :    0.025730
   8 H :    0.025085
   9 H :    0.027880
  10 H :    0.033228
  11 H :    0.030173
  12 H :    0.023018
  13 H :    0.024627
  14 H :    0.027958

  Mayer bond orders larger than 0.1
B(  0-C ,  1-C ) :   1.1121 B(  0-C ,  7-H ) :   0.9606 B(  0-C ,  8-H ) :   0.9689
B(  0-C ,  9-H ) :   0.9647 B(  1-C ,  2-C ) :   1.0774 B(  1-C , 10-H ) :   0.9135
B(  1-C , 11-H ) :   0.9208 B(  2-C ,  3-C ) :   1.5468 B(  2-C ,  6-C ) :   1.2849
B(  3-C ,  4-S ) :   1.1620 B(  3-C , 12-H ) :   0.9618 B(  4-S ,  5-C ) :   1.1902
B(  5-C ,  6-C ) :   1.5253 B(  5-C , 13-H ) :   0.9656 B(  6-C , 14-H ) :   0.9921

FINAL SINGLE POINT ENERGY      -630.858904075098

DIPOLE MOMENT
-------------
                                X             Y             Z
Electronic contribution:      1.26433      -0.38270      11.51438
Nuclear contribution   :     -1.33907       0.35498     -11.79134
                        -----------------------------------------
Total Dipole Moment    :     -0.07474      -0.02772      -0.27696
                        -----------------------------------------
Magnitude (a.u.)       :      0.28820
Magnitude (Debye)      :      0.73254

                             ****ORCA TERMINATED NORMALLY****
TOTAL RUN TIME: 0 days 0 hours 0 minutes 7 seconds 34 msec
