                         Program Version 3.0.3 - RELEASE   -
|  1> ! RI PBE def2-SVP def2-SVP/J NBO PAL2
|  2> % maxcore 2000
|  3> % output
|  4>     # printlevel mini
|  5>     print[ P_Basis ] 0
|  6>     print[ P_SCFInfo ] 1
|  7>     print[ P_SCFIterInfo ] 1
|  8>     print[ P_OrbEn ] 0
|  9>     print[ P_Cartesian ] 0
| 10> end
| 11> *xyz 0 1
| 12>  C        2.6171450000    -1.2268650000     0.3439710000
| 13>  C        2.2328280000     0.0005100000     0.0060450000
| 14>  C        2.8596070000     0.8382090000    -1.0093700000
| 15>  N        2.3540800000     2.0407370000    -1.2262500000
| 16>  S        3.2029150000     2.7990460000    -2.3939230000
| 17>  C        4.2939610000     1.5275030000    -2.6559750000
| 18>  C        3.9830360000     0.5019800000    -1.8158710000
| 19>  H        2.0939070000    -1.7823070000     1.1122760000
| 20>  H        3.4595440000    -1.7215210000    -0.1266890000
| 21>  H        1.3840230000     0.4624380000     0.5004490000
| 22>  H        5.0888420000     1.5782230000    -3.3857890000
| 23>  H        4.5197120000    -0.4350530000    -1.7729730000
| 24> *
| 25>
| 26>                          ****END OF INPUT****
 Total Charge           Charge          ....    0
 Multiplicity           Mult            ....    1
 Number of Electrons    NEL             ....   58
 Basis Dimension        Dim             ....  127

MULLIKEN ATOMIC CHARGES
-----------------------
   0 C :   -0.035049
   1 C :    0.052815
   2 C :    0.002395
   3 N :   -0.300728
   4 S :    0.283652
   5 C :   -0.089170
   6 C :    0.003187
   7 H :    0.034886
   8 H :    0.020521
   9 H :   -0.002691
  10 H :    0.035971
  11 H :   -0.005789
Sum of atomic charges:    0.0000000

LOEWDIN ATOMIC CHARGES
----------------------
   0 C :   -0.042897
   1 C :   -0.025670
   2 C :   -0.050649
   3 N :   -0.273960
   4 S :    0.514813
   5 C :   -0.197744
   6 C :   -0.078751
   7 H :    0.030380
   8 H :    0.022191
   9 H :    0.037707
  10 H :    0.030620
  11 H :    0.033960

  Mayer bond orders larger than 0.1
B(  0-C ,  1-C ) :   1.9100 B(  0-C ,  7-H ) :   0.9410 B(  0-C ,  8-H ) :   0.9405
B(  1-C ,  2-C ) :   1.1076 B(  1-C ,  9-H ) :   0.9521 B(  2-C ,  3-N ) :   1.5416
B(  2-C ,  6-C ) :   1.2228 B(  3-N ,  4-S ) :   1.2072 B(  3-N ,  5-C ) :   0.1273
B(  4-S ,  5-C ) :   1.1878 B(  5-C ,  6-C ) :   1.5466 B(  5-C , 10-H ) :   0.9536
B(  6-C , 11-H ) :   0.9799

FINAL SINGLE POINT ENERGY      -645.660569121252

DIPOLE MOMENT
-------------
                                X             Y             Z
Electronic contribution:     -0.34770       7.12128      -3.62045
Nuclear contribution   :      0.98477      -7.56614       3.30377
                        -----------------------------------------
Total Dipole Moment    :      0.63707      -0.44487      -0.31668
                        -----------------------------------------
Magnitude (a.u.)       :      0.83907
Magnitude (Debye)      :      2.13275

                             ****ORCA TERMINATED NORMALLY****
TOTAL RUN TIME: 0 days 0 hours 0 minutes 6 seconds 563 msec
