                         Program Version 3.0.3 - RELEASE   -
|  1> ! RI PBE def2-SVP def2-SVP/J NBO PAL2
|  2> % maxcore 2000
|  3> % output
|  4>     # printlevel mini
|  5>     print[ P_Basis ] 0
|  6>     print[ P_SCFInfo ] 1
|  7>     print[ P_SCFIterInfo ] 1
|  8>     print[ P_OrbEn ] 0
|  9>     print[ P_Cartesian ] 0
| 10> end
| 11> *xyz 0 1
| 12>  C        0.9112600000    -0.0447600000     0.0893640000
| 13>  C        2.1113000000     0.0079960000     0.0897500000
| 14>  C        3.5334940000     0.0297860000     0.0901920000
| 15>  N        4.1841530000     1.1821850000     0.0908090000
| 16>  S        5.7856380000     0.8940400000     0.0911930000
| 17>  C        5.6624430000    -0.7954510000     0.0905420000
| 18>  C        4.3430700000    -1.1383290000     0.0900150000
| 19>  H       -0.1527000000    -0.0778780000     0.0890270000
| 20>  H        6.5242280000    -1.4466170000     0.0905690000
| 21>  H        3.9562140000    -2.1470810000     0.0895300000
| 22> *
| 23>
| 24>                          ****END OF INPUT****
 Total Charge           Charge          ....    0
 Multiplicity           Mult            ....    1
 Number of Electrons    NEL             ....   56
 Basis Dimension        Dim             ....  117

MULLIKEN ATOMIC CHARGES
-----------------------
   0 C :   -0.456237
   1 C :    0.480747
   2 C :   -0.054865
   3 N :   -0.278736
   4 S :    0.293963
   5 C :   -0.080286
   6 C :    0.044495
   7 H :    0.011178
   8 H :    0.040529
   9 H :   -0.000787
Sum of atomic charges:   -0.0000000

LOEWDIN ATOMIC CHARGES
----------------------
   0 C :   -0.041213
   1 C :   -0.013752
   2 C :   -0.065505
   3 N :   -0.259496
   4 S :    0.531081
   5 C :   -0.197408
   6 C :   -0.065809
   7 H :    0.038703
   8 H :    0.033146
   9 H :    0.040253

  Mayer bond orders larger than 0.1
B(  0-C ,  1-C ) :   2.2651 B(  0-C ,  7-H ) :   1.0939 B(  1-C ,  2-C ) :   0.9629
B(  1-C ,  7-H ) :  -0.1046 B(  2-C ,  3-N ) :   1.5444 B(  2-C ,  4-S ) :   0.1014
B(  2-C ,  6-C ) :   1.2406 B(  3-N ,  4-S ) :   1.2128 B(  3-N ,  5-C ) :   0.1290
B(  4-S ,  5-C ) :   1.1932 B(  5-C ,  6-C ) :   1.5185 B(  5-C ,  8-H ) :   0.9539
B(  6-C ,  9-H ) :   0.9897

FINAL SINGLE POINT ENERGY      -644.411577326214

DIPOLE MOMENT
-------------
                                X             Y             Z
Electronic contribution:      2.41655       3.07974       0.00184
Nuclear contribution   :     -2.05024      -3.92964      -0.00205
                        -----------------------------------------
Total Dipole Moment    :      0.36630      -0.84989      -0.00021
                        -----------------------------------------
Magnitude (a.u.)       :      0.92547
Magnitude (Debye)      :      2.35236

                             ****ORCA TERMINATED NORMALLY****
TOTAL RUN TIME: 0 days 0 hours 0 minutes 6 seconds 31 msec
