                         Program Version 3.0.3 - RELEASE   -
|  1> ! RI PBE def2-SVP def2-SVP/J NBO PAL2
|  2> % maxcore 2000
|  3> % output
|  4>     # printlevel mini
|  5>     print[ P_Basis ] 0
|  6>     print[ P_SCFInfo ] 1
|  7>     print[ P_SCFIterInfo ] 1
|  8>     print[ P_OrbEn ] 0
|  9>     print[ P_Cartesian ] 0
| 10> end
| 11> *xyz 0 1
| 12>  C        0.9350640000     0.0597890000     0.0379220000
| 13>  C        2.4472800000    -0.0685360000    -0.1195350000
| 14>  C        2.8434820000    -1.3193240000    -0.8387600000
| 15>  N        3.1486520000    -1.2696520000    -2.1183940000
| 16>  S        3.5043330000    -2.7713110000    -2.6641860000
| 17>  C        3.2570970000    -3.5471270000    -1.1794140000
| 18>  C        2.8924740000    -2.6132240000    -0.2541290000
| 19>  H        0.6776870000     0.9811370000     0.5650220000
| 20>  H        0.5209340000    -0.7782850000     0.6037310000
| 21>  H        0.4463180000     0.0781890000    -0.9383250000
| 22>  H        2.9230340000    -0.0562780000     0.8661100000
| 23>  H        2.8377560000     0.7828180000    -0.6802330000
| 24>  H        3.3887280000    -4.6109710000    -1.0452120000
| 25>  H        2.6759590000    -2.8273250000     0.7839130000
| 26> *
| 27>
| 28>                          ****END OF INPUT****
 Total Charge           Charge          ....    0
 Multiplicity           Mult            ....    1
 Number of Electrons    NEL             ....   60
 Basis Dimension        Dim             ....  137

MULLIKEN ATOMIC CHARGES
-----------------------
   0 C :   -0.026708
   1 C :    0.099103
   2 C :   -0.084936
   3 N :   -0.296625
   4 S :    0.264887
   5 C :   -0.087447
   6 C :    0.002478
   7 H :    0.026573
   8 H :    0.019637
   9 H :    0.032388
  10 H :    0.009783
  11 H :    0.017134
  12 H :    0.035067
  13 H :   -0.011334
Sum of atomic charges:   -0.0000000

LOEWDIN ATOMIC CHARGES
----------------------
   0 C :   -0.057579
   1 C :   -0.041597
   2 C :   -0.044513
   3 N :   -0.279031
   4 S :    0.502457
   5 C :   -0.201088
   6 C :   -0.092634
   7 H :    0.028248
   8 H :    0.024278
   9 H :    0.030677
  10 H :    0.032448
  11 H :    0.036934
  12 H :    0.029178
  13 H :    0.032222

  Mayer bond orders larger than 0.1
B(  0-C ,  1-C ) :   1.1177 B(  0-C ,  7-H ) :   0.9631 B(  0-C ,  8-H ) :   0.9685
B(  0-C ,  9-H ) :   0.9636 B(  1-C ,  2-C ) :   1.0611 B(  1-C , 10-H ) :   0.9157
B(  1-C , 11-H ) :   0.9120 B(  2-C ,  3-N ) :   1.6008 B(  2-C ,  6-C ) :   1.2410
B(  3-N ,  4-S ) :   1.1918 B(  3-N ,  5-C ) :   0.1349 B(  4-S ,  5-C ) :   1.1989
B(  5-C ,  6-C ) :   1.5258 B(  5-C , 12-H ) :   0.9559 B(  6-C , 13-H ) :   0.9867

FINAL SINGLE POINT ENERGY      -646.880435054723

DIPOLE MOMENT
-------------
                                X             Y             Z
Electronic contribution:      5.73894      -6.23901      -7.83185
Nuclear contribution   :     -5.87160       5.78061       8.49067
                        -----------------------------------------
Total Dipole Moment    :     -0.13266      -0.45840       0.65882
                        -----------------------------------------
Magnitude (a.u.)       :      0.81349
Magnitude (Debye)      :      2.06774

                             ****ORCA TERMINATED NORMALLY****
TOTAL RUN TIME: 0 days 0 hours 0 minutes 6 seconds 439 msec
