                         Program Version 3.0.3 - RELEASE   -
|  1> ! RI PBE def2-SVP def2-SVP/J NBO PAL2
|  2> % maxcore 2000
|  3> % output
|  4>     # printlevel mini
|  5>     print[ P_Basis ] 0
|  6>     print[ P_SCFInfo ] 1
|  7>     print[ P_SCFIterInfo ] 1
|  8>     print[ P_OrbEn ] 0
|  9>     print[ P_Cartesian ] 0
| 10> end
| 11> *xyz 0 1
| 12>  C        0.8113060000    -0.0628990000    -0.2334540000
| 13>  C        2.0145810000     0.2337500000     0.2533380000
| 14>  C        2.7954780000    -0.5559610000     1.1784480000
| 15>  C        4.0339920000    -0.2497890000     1.6791810000
| 16>  N        4.5848130000    -1.1447690000     2.5412400000
| 17>  C        3.7827100000    -2.1477260000     2.7160200000
| 18>  S        2.3071140000    -2.0669520000     1.8430540000
| 19>  H        0.3117090000     0.6031590000    -0.9250490000
| 20>  H        0.2869430000    -0.9729120000     0.0386390000
| 21>  H        2.4950240000     1.1598270000    -0.0531850000
| 22>  H        4.5791090000     0.6508110000     1.4246490000
| 23>  H        3.9989200000    -2.9907380000     3.3593170000
| 24> *
| 25>
| 26>                          ****END OF INPUT****
 Total Charge           Charge          ....    0
 Multiplicity           Mult            ....    1
 Number of Electrons    NEL             ....   58
 Basis Dimension        Dim             ....  127

MULLIKEN ATOMIC CHARGES
-----------------------
   0 C :   -0.045575
   1 C :    0.028428
   2 C :   -0.132081
   3 C :    0.048482
   4 N :   -0.098256
   5 C :   -0.015435
   6 S :    0.100517
   7 H :    0.036632
   8 H :    0.028495
   9 H :    0.000125
  10 H :   -0.000994
  11 H :    0.049662
Sum of atomic charges:   -0.0000000

LOEWDIN ATOMIC CHARGES
----------------------
   0 C :   -0.052453
   1 C :   -0.039586
   2 C :   -0.204195
   3 C :   -0.036389
   4 N :   -0.086996
   5 C :   -0.150653
   6 S :    0.430208
   7 H :    0.030765
   8 H :    0.022029
   9 H :    0.039381
  10 H :    0.026367
  11 H :    0.021522

  Mayer bond orders larger than 0.1
B(  0-C ,  1-C ) :   1.9010 B(  0-C ,  7-H ) :   0.9414 B(  0-C ,  8-H ) :   0.9468
B(  1-C ,  2-C ) :   1.1522 B(  1-C ,  9-H ) :   0.9500 B(  2-C ,  3-C ) :   1.4667
B(  2-C ,  6-S ) :   1.1335 B(  3-C ,  4-N ) :   1.3800 B(  3-C , 10-H ) :   0.9847
B(  4-N ,  5-C ) :   1.6651 B(  4-N ,  6-S ) :   0.1263 B(  5-C ,  6-S ) :   1.1556
B(  5-C , 11-H ) :   0.9579

FINAL SINGLE POINT ENERGY      -645.668915880278

DIPOLE MOMENT
-------------
                                X             Y             Z
Electronic contribution:      1.67424      -3.52082       3.11549
Nuclear contribution   :     -2.16452       3.52405      -3.39181
                        -----------------------------------------
Total Dipole Moment    :     -0.49028       0.00323      -0.27632
                        -----------------------------------------
Magnitude (a.u.)       :      0.56280
Magnitude (Debye)      :      1.43052

                             ****ORCA TERMINATED NORMALLY****
TOTAL RUN TIME: 0 days 0 hours 0 minutes 5 seconds 972 msec
