                         Program Version 3.0.3 - RELEASE   -
|  1> ! RI PBE def2-SVP def2-SVP/J NBO PAL2
|  2> % maxcore 2000
|  3> % output
|  4>     # printlevel mini
|  5>     print[ P_Basis ] 0
|  6>     print[ P_SCFInfo ] 1
|  7>     print[ P_SCFIterInfo ] 1
|  8>     print[ P_OrbEn ] 0
|  9>     print[ P_Cartesian ] 0
| 10> end
| 11> *xyz 0 1
| 12>  C        0.8609020000     0.0630020000     0.0888000000
| 13>  C        2.0627270000     0.0110140000     0.0914780000
| 14>  C        3.4671500000    -0.0531060000     0.0946750000
| 15>  C        4.3736170000     0.9778380000     0.0941340000
| 16>  N        5.6815070000     0.6226250000     0.0978250000
| 17>  C        5.8019680000    -0.6701150000     0.1012260000
| 18>  S        4.3304010000    -1.5436590000     0.1001720000
| 19>  H       -0.2022430000     0.1138140000     0.0864520000
| 20>  H        4.0945970000     2.0229530000     0.0909900000
| 21>  H        6.7530740000    -1.1865670000     0.1045380000
| 22> *
| 23>
| 24>                          ****END OF INPUT****
 Total Charge           Charge          ....    0
 Multiplicity           Mult            ....    1
 Number of Electrons    NEL             ....   56
 Basis Dimension        Dim             ....  117

MULLIKEN ATOMIC CHARGES
-----------------------
   0 C :   -0.429821
   1 C :    0.421704
   2 C :   -0.197307
   3 C :    0.098436
   4 N :   -0.097243
   5 C :   -0.011203
   6 S :    0.141383
   7 H :    0.014219
   8 H :    0.007612
   9 H :    0.052220
Sum of atomic charges:   -0.0000000

LOEWDIN ATOMIC CHARGES
----------------------
   0 C :   -0.042296
   1 C :   -0.036998
   2 C :   -0.220031
   3 C :   -0.017835
   4 N :   -0.082684
   5 C :   -0.150804
   6 S :    0.455572
   7 H :    0.039628
   8 H :    0.032032
   9 H :    0.023416

  Mayer bond orders larger than 0.1
B(  0-C ,  1-C ) :   2.2612 B(  0-C ,  7-H ) :   1.0895 B(  1-C ,  2-C ) :   1.0584
B(  2-C ,  3-C ) :   1.4603 B(  2-C ,  6-S ) :   1.1329 B(  3-C ,  4-N ) :   1.3879
B(  3-C ,  8-H ) :   0.9910 B(  4-N ,  5-C ) :   1.6503 B(  4-N ,  6-S ) :   0.1241
B(  5-C ,  6-S ) :   1.1628 B(  5-C ,  9-H ) :   0.9574

FINAL SINGLE POINT ENERGY      -644.422922207550

DIPOLE MOMENT
-------------
                                X             Y             Z
Electronic contribution:      0.72488      -2.22898       0.00685
Nuclear contribution   :     -1.05476       1.85668      -0.00670
                        -----------------------------------------
Total Dipole Moment    :     -0.32988      -0.37230       0.00015
                        -----------------------------------------
Magnitude (a.u.)       :      0.49742
Magnitude (Debye)      :      1.26435

                             ****ORCA TERMINATED NORMALLY****
TOTAL RUN TIME: 0 days 0 hours 0 minutes 5 seconds 659 msec
