                         Program Version 3.0.3 - RELEASE   -
|  1> ! RI PBE def2-SVP def2-SVP/J NBO PAL2
|  2> % maxcore 2000
|  3> % output
|  4>     # printlevel mini
|  5>     print[ P_Basis ] 0
|  6>     print[ P_SCFInfo ] 1
|  7>     print[ P_SCFIterInfo ] 1
|  8>     print[ P_OrbEn ] 0
|  9>     print[ P_Cartesian ] 0
| 10> end
| 11> *xyz 0 1
| 12>  C        0.9698320000     0.2170870000    -0.2523580000
| 13>  C        2.4562370000    -0.0803160000    -0.0855280000
| 14>  C        2.8726230000    -0.3125550000     1.3280470000
| 15>  C        3.3559680000    -1.4549790000     1.8942620000
| 16>  N        3.6551700000    -1.4054140000     3.2238440000
| 17>  C        3.4062860000    -0.2264610000     3.6953810000
| 18>  S        2.7911940000     0.8951190000     2.5487180000
| 19>  H        0.7201100000     0.3549630000    -1.3065980000
| 20>  H        0.6859830000     1.1272230000     0.2810410000
| 21>  H        0.3624190000    -0.6013820000     0.1394390000
| 22>  H        3.0429420000     0.7381590000    -0.5158320000
| 23>  H        2.7203240000    -0.9767530000    -0.6540770000
| 24>  H        3.5123690000    -2.3780820000     1.3494220000
| 25>  H        3.5619440000     0.0614920000     4.7268380000
| 26> *
| 27>
| 28>                          ****END OF INPUT****
 Total Charge           Charge          ....    0
 Multiplicity           Mult            ....    1
 Number of Electrons    NEL             ....   60
 Basis Dimension        Dim             ....  137

MULLIKEN ATOMIC CHARGES
-----------------------
   0 C :   -0.033794
   1 C :    0.061514
   2 C :   -0.229189
   3 C :    0.057118
   4 N :   -0.107304
   5 C :   -0.022572
   6 S :    0.091555
   7 H :    0.028716
   8 H :    0.027920
   9 H :    0.034131
  10 H :    0.035559
  11 H :    0.018593
  12 H :   -0.007133
  13 H :    0.044885
Sum of atomic charges:   -0.0000000

LOEWDIN ATOMIC CHARGES
----------------------
   0 C :   -0.062015
   1 C :   -0.049227
   2 C :   -0.203418
   3 C :   -0.055412
   4 N :   -0.090099
   5 C :   -0.160615
   6 S :    0.416134
   7 H :    0.029555
   8 H :    0.024654
   9 H :    0.030499
  10 H :    0.037819
  11 H :    0.039291
  12 H :    0.023701
  13 H :    0.019132

  Mayer bond orders larger than 0.1
B(  0-C ,  1-C ) :   1.1063 B(  0-C ,  7-H ) :   0.9619 B(  0-C ,  8-H ) :   0.9678
B(  0-C ,  9-H ) :   0.9679 B(  1-C ,  2-C ) :   1.0692 B(  1-C , 10-H ) :   0.9182
B(  1-C , 11-H ) :   0.9203 B(  2-C ,  3-C ) :   1.5582 B(  2-C ,  6-S ) :   1.1600
B(  3-C ,  4-N ) :   1.3615 B(  3-C , 12-H ) :   0.9839 B(  4-N ,  5-C ) :   1.6866
B(  4-N ,  6-S ) :   0.1297 B(  5-C ,  6-S ) :   1.1443 B(  5-C , 13-H ) :   0.9578

FINAL SINGLE POINT ENERGY      -646.886874250324

DIPOLE MOMENT
-------------
                                X             Y             Z
Electronic contribution:      4.11085       1.18390       7.83906
Nuclear contribution   :     -4.41327      -0.73822      -8.42340
                        -----------------------------------------
Total Dipole Moment    :     -0.30242       0.44568      -0.58434
                        -----------------------------------------
Magnitude (a.u.)       :      0.79469
Magnitude (Debye)      :      2.01995

                             ****ORCA TERMINATED NORMALLY****
TOTAL RUN TIME: 0 days 0 hours 0 minutes 6 seconds 426 msec
