                         Program Version 3.0.3 - RELEASE   -
|  1> ! RI PBE def2-SVP def2-SVP/J NBO PAL2
|  2> % maxcore 2000
|  3> % output
|  4>     # printlevel mini
|  5>     print[ P_Basis ] 0
|  6>     print[ P_SCFInfo ] 1
|  7>     print[ P_SCFIterInfo ] 1
|  8>     print[ P_OrbEn ] 0
|  9>     print[ P_Cartesian ] 0
| 10> end
| 11> *xyz 0 1
| 12>  C        1.3059160000    -0.4956040000     0.5153550000
| 13>  C        2.2278820000     0.1210720000    -0.2197280000
| 14>  C        2.9516510000    -0.4508330000    -1.3362870000
| 15>  C        3.9059250000     0.1771280000    -2.1023200000
| 16>  N        4.4345990000    -0.5797950000    -3.0908780000
| 17>  N        3.9610480000    -1.7602740000    -3.1551060000
| 18>  S        2.8000360000    -2.0199400000    -1.9653720000
| 19>  H        0.8157630000     0.0149700000     1.3344620000
| 20>  H        1.0101720000    -1.5223910000     0.3276540000
| 21>  H        2.4886980000     1.1508820000     0.0092890000
| 22>  H        4.2475200000     1.1948750000    -1.9712790000
| 23> *
| 24>
| 25>                          ****END OF INPUT****
 Total Charge           Charge          ....    0
 Multiplicity           Mult            ....    1
 Number of Electrons    NEL             ....   58
 Basis Dimension        Dim             ....  122

MULLIKEN ATOMIC CHARGES
-----------------------
   0 C :   -0.021610
   1 C :    0.034502
   2 C :   -0.183598
   3 C :    0.074544
   4 N :   -0.071998
   5 N :   -0.210026
   6 S :    0.281705
   7 H :    0.042315
   8 H :    0.034046
   9 H :    0.006395
  10 H :    0.013725
Sum of atomic charges:   -0.0000000

LOEWDIN ATOMIC CHARGES
----------------------
   0 C :   -0.027036
   1 C :   -0.040048
   2 C :   -0.207112
   3 C :   -0.061714
   4 N :   -0.057017
   5 N :   -0.224029
   6 S :    0.483895
   7 H :    0.034399
   8 H :    0.025142
   9 H :    0.040758
  10 H :    0.032762

  Mayer bond orders larger than 0.1
B(  0-C ,  1-C ) :   1.9071 B(  0-C ,  7-H ) :   0.9392 B(  0-C ,  8-H ) :   0.9478
B(  1-C ,  2-C ) :   1.1358 B(  1-C ,  9-H ) :   0.9488 B(  2-C ,  3-C ) :   1.3965
B(  2-C ,  5-N ) :   0.1473 B(  2-C ,  6-S ) :   1.1996 B(  3-C ,  4-N ) :   1.3735
B(  3-C , 10-H ) :   0.9889 B(  4-N ,  5-N ) :   1.4798 B(  4-N ,  6-S ) :   0.1835
B(  5-N ,  6-S ) :   1.1239

FINAL SINGLE POINT ENERGY      -661.661241918722

DIPOLE MOMENT
-------------
                                X             Y             Z
Electronic contribution:      2.57490      -3.75613      -4.84823
Nuclear contribution   :     -3.35147       4.31136       6.02017
                        -----------------------------------------
Total Dipole Moment    :     -0.77657       0.55523       1.17194
                        -----------------------------------------
Magnitude (a.u.)       :      1.51155
Magnitude (Debye)      :      3.84206

                             ****ORCA TERMINATED NORMALLY****
TOTAL RUN TIME: 0 days 0 hours 0 minutes 6 seconds 558 msec
