                         Program Version 3.0.3 - RELEASE   -
|  1> ! RI PBE def2-SVP def2-SVP/J NBO PAL2
|  2> % maxcore 2000
|  3> % output
|  4>     # printlevel mini
|  5>     print[ P_Basis ] 0
|  6>     print[ P_SCFInfo ] 1
|  7>     print[ P_SCFIterInfo ] 1
|  8>     print[ P_OrbEn ] 0
|  9>     print[ P_Cartesian ] 0
| 10> end
| 11> *xyz 0 1
| 12>  C        0.8253240000     0.1021260000    -0.0257900000
| 13>  C        2.0273920000     0.0847980000    -0.0239210000
| 14>  C        3.4320120000     0.0577430000    -0.0217320000
| 15>  C        4.3139960000     1.1155410000    -0.0223820000
| 16>  N        5.6146430000     0.7544340000    -0.0197240000
| 17>  N        5.8112280000    -0.5068620000    -0.0170740000
| 18>  S        4.3727660000    -1.3565090000    -0.0178340000
| 19>  H       -0.2393130000     0.1206180000    -0.0274120000
| 20>  H        4.0419620000     2.1610210000    -0.0247300000
| 21> *
| 22>
| 23>                          ****END OF INPUT****
 Total Charge           Charge          ....    0
 Multiplicity           Mult            ....    1
 Number of Electrons    NEL             ....   56
 Basis Dimension        Dim             ....  112

MULLIKEN ATOMIC CHARGES
-----------------------
   0 C :   -0.412497
   1 C :    0.430529
   2 C :   -0.246347
   3 C :    0.128505
   4 N :   -0.070622
   5 N :   -0.207919
   6 S :    0.332897
   7 H :    0.022603
   8 H :    0.022851
Sum of atomic charges:   -0.0000000

LOEWDIN ATOMIC CHARGES
----------------------
   0 C :   -0.022639
   1 C :   -0.038330
   2 C :   -0.222100
   3 C :   -0.041869
   4 N :   -0.052629
   5 N :   -0.223436
   6 S :    0.518521
   7 H :    0.043539
   8 H :    0.038943

  Mayer bond orders larger than 0.1
B(  0-C ,  1-C ) :   2.2570 B(  0-C ,  7-H ) :   1.0876 B(  1-C ,  2-C ) :   1.0508
B(  2-C ,  3-C ) :   1.3850 B(  2-C ,  5-N ) :   0.1617 B(  2-C ,  6-S ) :   1.1951
B(  3-C ,  4-N ) :   1.3782 B(  3-C ,  8-H ) :   0.9956 B(  4-N ,  5-N ) :   1.4678
B(  4-N ,  6-S ) :   0.1812 B(  5-N ,  6-S ) :   1.1388

FINAL SINGLE POINT ENERGY      -660.414836857705

DIPOLE MOMENT
-------------
                                X             Y             Z
Electronic contribution:      2.45018      -2.52156       0.00816
Nuclear contribution   :     -3.77507       2.54206      -0.01036
                        -----------------------------------------
Total Dipole Moment    :     -1.32489       0.02050      -0.00219
                        -----------------------------------------
Magnitude (a.u.)       :      1.32505
Magnitude (Debye)      :      3.36801

                             ****ORCA TERMINATED NORMALLY****
TOTAL RUN TIME: 0 days 0 hours 0 minutes 4 seconds 885 msec
