                         Program Version 3.0.3 - RELEASE   -
|  1> ! RI PBE def2-SVP def2-SVP/J NBO PAL2
|  2> % maxcore 2000
|  3> % output
|  4>     # printlevel mini
|  5>     print[ P_Basis ] 0
|  6>     print[ P_SCFInfo ] 1
|  7>     print[ P_SCFIterInfo ] 1
|  8>     print[ P_OrbEn ] 0
|  9>     print[ P_Cartesian ] 0
| 10> end
| 11> *xyz 0 1
| 12>  C        0.9648710000     0.2013180000     0.0141580000
| 13>  C        2.4384940000    -0.1916520000     0.0150460000
| 14>  C        2.7950320000    -1.1699710000     1.0839210000
| 15>  C        3.2656750000    -2.4482690000     0.9388260000
| 16>  N        3.4945240000    -3.1106590000     2.0988480000
| 17>  N        3.2345440000    -2.4381170000     3.1467780000
| 18>  S        2.6739430000    -0.8993750000     2.7506400000
| 19>  H        0.7559200000     0.8966540000    -0.8010530000
| 20>  H        0.6839610000     0.6871900000     0.9511050000
| 21>  H        0.3265540000    -0.6753590000    -0.1119870000
| 22>  H        3.0567240000     0.7050730000     0.1229700000
| 23>  H        2.7058330000    -0.6358770000    -0.9475300000
| 24>  H        3.4613160000    -2.9443560000    -0.0022300000
| 25> *
| 26>
| 27>                          ****END OF INPUT****
 Total Charge           Charge          ....    0
 Multiplicity           Mult            ....    1
 Number of Electrons    NEL             ....   60
 Basis Dimension        Dim             ....  132

MULLIKEN ATOMIC CHARGES
-----------------------
   0 C :   -0.043105
   1 C :    0.074122
   2 C :   -0.273243
   3 C :    0.089574
   4 N :   -0.083743
   5 N :   -0.215474
   6 S :    0.272116
   7 H :    0.036463
   8 H :    0.033472
   9 H :    0.039727
  10 H :    0.042757
  11 H :    0.019421
  12 H :    0.007913
Sum of atomic charges:    0.0000000

LOEWDIN ATOMIC CHARGES
----------------------
   0 C :   -0.060722
   1 C :   -0.046063
   2 C :   -0.202439
   3 C :   -0.077137
   4 N :   -0.061017
   5 N :   -0.230546
   6 S :    0.472922
   7 H :    0.032906
   8 H :    0.026451
   9 H :    0.032898
  10 H :    0.043230
  11 H :    0.039311
  12 H :    0.030206

  Mayer bond orders larger than 0.1
B(  0-C ,  1-C ) :   1.1072 B(  0-C ,  7-H ) :   0.9621 B(  0-C ,  8-H ) :   0.9679
B(  0-C ,  9-H ) :   0.9671 B(  1-C ,  2-C ) :   1.0634 B(  1-C , 10-H ) :   0.9157
B(  1-C , 11-H ) :   0.9202 B(  2-C ,  3-C ) :   1.4629 B(  2-C ,  5-N ) :   0.1535
B(  2-C ,  6-S ) :   1.2369 B(  3-C ,  4-N ) :   1.3595 B(  3-C , 12-H ) :   0.9921
B(  4-N ,  5-N ) :   1.4933 B(  4-N ,  6-S ) :   0.1866 B(  5-N ,  6-S ) :   1.1165

FINAL SINGLE POINT ENERGY      -662.880763459316

DIPOLE MOMENT
-------------
                                X             Y             Z
Electronic contribution:      4.27955      -4.54224       8.72000
Nuclear contribution   :     -4.70671       5.61515      -9.90840
                        -----------------------------------------
Total Dipole Moment    :     -0.42717       1.07290      -1.18839
                        -----------------------------------------
Magnitude (a.u.)       :      1.65707
Magnitude (Debye)      :      4.21193

                             ****ORCA TERMINATED NORMALLY****
TOTAL RUN TIME: 0 days 0 hours 0 minutes 6 seconds 506 msec
