                         Program Version 3.0.3 - RELEASE   -
|  1> ! RI PBE def2-SVP def2-SVP/J NBO PAL2
|  2> % maxcore 2000
|  3> % output
|  4>     # printlevel mini
|  5>     print[ P_Basis ] 0
|  6>     print[ P_SCFInfo ] 1
|  7>     print[ P_SCFIterInfo ] 1
|  8>     print[ P_OrbEn ] 0
|  9>     print[ P_Cartesian ] 0
| 10> end
| 11> *xyz 0 1
| 12>  C        1.2113950000    -0.4633740000    -0.5054880000
| 13>  C        2.1160560000     0.2051120000     0.2059770000
| 14>  C        2.9161030000    -0.3285570000     1.2981050000
| 15>  C        3.8416220000     0.3972790000     2.0099930000
| 16>  S        4.5512790000    -0.5845780000     3.1875390000
| 17>  N        3.6949520000    -1.9297160000     2.8054560000
| 18>  C        2.8878920000    -1.6562060000     1.8124220000
| 19>  H        0.6633920000     0.0223100000    -1.3030220000
| 20>  H        0.9839820000    -1.5076660000    -0.3236580000
| 21>  H        2.2939110000     1.2509910000    -0.0304630000
| 22>  H        4.1091640000     1.4356870000     1.8755540000
| 23>  H        2.2482410000    -2.4485840000     1.4396840000
| 24> *
| 25>
| 26>                          ****END OF INPUT****
 Total Charge           Charge          ....    0
 Multiplicity           Mult            ....    1
 Number of Electrons    NEL             ....   58
 Basis Dimension        Dim             ....  127

MULLIKEN ATOMIC CHARGES
-----------------------
   0 C :   -0.030040
   1 C :    0.007781
   2 C :   -0.006744
   3 C :   -0.125431
   4 S :    0.277555
   5 N :   -0.285651
   6 C :    0.076243
   7 H :    0.030964
   8 H :    0.024804
   9 H :   -0.011048
  10 H :    0.030819
  11 H :    0.010747
Sum of atomic charges:   -0.0000000

LOEWDIN ATOMIC CHARGES
----------------------
   0 C :   -0.047085
   1 C :   -0.026670
   2 C :   -0.097349
   3 C :   -0.200402
   4 S :    0.516194
   5 N :   -0.260971
   6 C :   -0.024713
   7 H :    0.029355
   8 H :    0.024066
   9 H :    0.032135
  10 H :    0.029668
  11 H :    0.025771

  Mayer bond orders larger than 0.1
B(  0-C ,  1-C ) :   1.9253 B(  0-C ,  7-H ) :   0.9400 B(  0-C ,  8-H ) :   0.9413
B(  1-C ,  2-C ) :   1.1190 B(  1-C ,  9-H ) :   0.9544 B(  2-C ,  3-C ) :   1.4752
B(  2-C ,  6-C ) :   1.2203 B(  3-C ,  4-S ) :   1.1928 B(  3-C ,  5-N ) :   0.1259
B(  3-C , 10-H ) :   0.9560 B(  4-S ,  5-N ) :   1.1991 B(  5-N ,  6-C ) :   1.6200
B(  6-C , 11-H ) :   0.9734

FINAL SINGLE POINT ENERGY      -645.658231099678

DIPOLE MOMENT
-------------
                                X             Y             Z
Electronic contribution:      5.58427      -1.04236       6.51457
Nuclear contribution   :     -5.72749       1.74159      -6.96351
                        -----------------------------------------
Total Dipole Moment    :     -0.14322       0.69924      -0.44893
                        -----------------------------------------
Magnitude (a.u.)       :      0.84320
Magnitude (Debye)      :      2.14325

                             ****ORCA TERMINATED NORMALLY****
TOTAL RUN TIME: 0 days 0 hours 0 minutes 6 seconds 411 msec
