                         Program Version 3.0.3 - RELEASE   -
|  1> ! RI PBE def2-SVP def2-SVP/J NBO PAL2
|  2> % maxcore 2000
|  3> % output
|  4>     # printlevel mini
|  5>     print[ P_Basis ] 0
|  6>     print[ P_SCFInfo ] 1
|  7>     print[ P_SCFIterInfo ] 1
|  8>     print[ P_OrbEn ] 0
|  9>     print[ P_Cartesian ] 0
| 10> end
| 11> *xyz 0 1
| 12>  C        0.8729650000    -0.0051490000    -0.0730070000
| 13>  C        2.0746840000     0.0310880000    -0.0713170000
| 14>  C        3.4898250000     0.0533100000    -0.0692840000
| 15>  C        4.2777070000     1.1820240000    -0.0682680000
| 16>  S        5.8998800000     0.7201480000    -0.0658950000
| 17>  N        5.6143260000    -0.8921650000    -0.0661320000
| 18>  C        4.3232360000    -1.1015210000    -0.0679610000
| 19>  H       -0.1909750000    -0.0349000000    -0.0744980000
| 20>  H        3.9519030000     2.2114730000    -0.0688440000
| 21>  H        3.9489580000    -2.1189180000    -0.0683920000
| 22> *
| 23>
| 24>                          ****END OF INPUT****
 Total Charge           Charge          ....    0
 Multiplicity           Mult            ....    1
 Number of Electrons    NEL             ....   56
 Basis Dimension        Dim             ....  117

MULLIKEN ATOMIC CHARGES
-----------------------
   0 C :   -0.447915
   1 C :    0.422578
   2 C :   -0.099581
   3 C :   -0.067065
   4 S :    0.285196
   5 N :   -0.281038
   6 C :    0.123982
   7 H :    0.010271
   8 H :    0.036800
   9 H :    0.016771
Sum of atomic charges:   -0.0000000

LOEWDIN ATOMIC CHARGES
----------------------
   0 C :   -0.054058
   1 C :   -0.017338
   2 C :   -0.111408
   3 C :   -0.182047
   4 S :    0.530621
   5 N :   -0.258958
   6 C :   -0.012804
   7 H :    0.038109
   8 H :    0.035772
   9 H :    0.032112

  Mayer bond orders larger than 0.1
B(  0-C ,  1-C ) :   2.2647 B(  0-C ,  7-H ) :   1.0930 B(  1-C ,  2-C ) :   1.0043
B(  1-C ,  7-H ) :  -0.1030 B(  2-C ,  3-C ) :   1.4711 B(  2-C ,  4-S ) :   0.1110
B(  2-C ,  6-C ) :   1.2226 B(  3-C ,  4-S ) :   1.1940 B(  3-C ,  5-N ) :   0.1257
B(  3-C ,  8-H ) :   0.9647 B(  4-S ,  5-N ) :   1.2041 B(  5-N ,  6-C ) :   1.5995
B(  6-C ,  9-H ) :   0.9819

FINAL SINGLE POINT ENERGY      -644.413589361044

DIPOLE MOMENT
-------------
                                X             Y             Z
Electronic contribution:      4.09650       0.81549       0.00571
Nuclear contribution   :     -4.57231      -0.29307      -0.00648
                        -----------------------------------------
Total Dipole Moment    :     -0.47581       0.52242      -0.00078
                        -----------------------------------------
Magnitude (a.u.)       :      0.70662
Magnitude (Debye)      :      1.79609

                             ****ORCA TERMINATED NORMALLY****
TOTAL RUN TIME: 0 days 0 hours 0 minutes 6 seconds 46 msec
