                         Program Version 3.0.3 - RELEASE   -
|  1> ! RI PBE def2-SVP def2-SVP/J NBO PAL2
|  2> % maxcore 2000
|  3> % output
|  4>     # printlevel mini
|  5>     print[ P_Basis ] 0
|  6>     print[ P_SCFInfo ] 1
|  7>     print[ P_SCFIterInfo ] 1
|  8>     print[ P_OrbEn ] 0
|  9>     print[ P_Cartesian ] 0
| 10> end
| 11> *xyz 0 1
| 12>  C        0.9895840000     0.0439050000    -0.2497930000
| 13>  C        2.4989760000    -0.0053770000    -0.0317270000
| 14>  C        2.9149310000     0.5329620000     1.3018620000
| 15>  C        3.2551310000    -0.2034470000     2.4055870000
| 16>  S        3.6191270000     0.8367320000     3.6917380000
| 17>  N        3.3487750000     2.2184320000     2.8579480000
| 18>  C        2.9898080000     1.9107280000     1.6340990000
| 19>  H        0.7254390000    -0.3453210000    -1.2357870000
| 20>  H        0.6139950000     1.0673910000    -0.1802070000
| 21>  H        0.4671800000    -0.5511220000     0.5025640000
| 22>  H        2.9985680000     0.5668490000    -0.8201530000
| 23>  H        2.8511570000    -1.0354480000    -0.1310360000
| 24>  H        3.3051250000    -1.2794380000     2.4961830000
| 25>  H        2.7766050000     2.7189440000     0.9407310000
| 26> *
| 27>
| 28>                          ****END OF INPUT****
 Total Charge           Charge          ....    0
 Multiplicity           Mult            ....    1
 Number of Electrons    NEL             ....   60
 Basis Dimension        Dim             ....  137

MULLIKEN ATOMIC CHARGES
-----------------------
   0 C :   -0.014210
   1 C :    0.070231
   2 C :   -0.117953
   3 C :   -0.120414
   4 S :    0.261317
   5 N :   -0.283820
   6 C :    0.073844
   7 H :    0.024441
   8 H :    0.022923
   9 H :    0.026151
  10 H :    0.019857
  11 H :    0.006970
  12 H :    0.025474
  13 H :    0.005190
Sum of atomic charges:   -0.0000000

LOEWDIN ATOMIC CHARGES
----------------------
   0 C :   -0.058262
   1 C :   -0.035333
   2 C :   -0.092455
   3 C :   -0.211723
   4 S :    0.506033
   5 N :   -0.267134
   6 C :   -0.041632
   7 H :    0.028025
   8 H :    0.026636
   9 H :    0.028299
  10 H :    0.035477
  11 H :    0.031529
  12 H :    0.027071
  13 H :    0.023467

  Mayer bond orders larger than 0.1
B(  0-C ,  1-C ) :   1.1115 B(  0-C ,  7-H ) :   0.9609 B(  0-C ,  8-H ) :   0.9685
B(  0-C ,  9-H ) :   0.9660 B(  1-C ,  2-C ) :   1.0712 B(  1-C , 10-H ) :   0.9156
B(  1-C , 11-H ) :   0.9213 B(  2-C ,  3-C ) :   1.5402 B(  2-C ,  4-S ) :   0.1030
B(  2-C ,  6-C ) :   1.2563 B(  3-C ,  4-S ) :   1.1782 B(  3-C ,  5-N ) :   0.1379
B(  3-C , 12-H ) :   0.9578 B(  4-S ,  5-N ) :   1.2130 B(  5-N ,  6-C ) :   1.5974
B(  6-C , 13-H ) :   0.9777

FINAL SINGLE POINT ENERGY      -646.877415323753

DIPOLE MOMENT
-------------
                                X             Y             Z
Electronic contribution:      5.99756       3.14109      10.76753
Nuclear contribution   :     -6.20279      -3.93746     -11.37946
                        -----------------------------------------
Total Dipole Moment    :     -0.20523      -0.79636      -0.61192
                        -----------------------------------------
Magnitude (a.u.)       :      1.02507
Magnitude (Debye)      :      2.60551

                             ****ORCA TERMINATED NORMALLY****
TOTAL RUN TIME: 0 days 0 hours 0 minutes 6 seconds 909 msec
