                         Program Version 3.0.3 - RELEASE   -
|  1> ! RI PBE def2-SVP def2-SVP/J NBO PAL2
|  2> % maxcore 2000
|  3> % output
|  4>     # printlevel mini
|  5>     print[ P_Basis ] 0
|  6>     print[ P_SCFInfo ] 1
|  7>     print[ P_SCFIterInfo ] 1
|  8>     print[ P_OrbEn ] 0
|  9>     print[ P_Cartesian ] 0
| 10> end
| 11> *xyz 0 1
| 12>  C        2.0334770000    -0.9289170000     0.9371550000
| 13>  C        2.4723870000     0.0027520000     0.0955580000
| 14>  C        3.1426940000    -0.2531120000    -1.1707510000
| 15>  N        3.5374220000     0.7579800000    -1.9291370000
| 16>  S        4.2371550000     0.1396210000    -3.2471770000
| 17>  N        4.0681990000    -1.4398050000    -2.9100730000
| 18>  C        3.4573420000    -1.5165910000    -1.7527450000
| 19>  H        1.5431030000    -0.6542310000     1.8625540000
| 20>  H        2.1434440000    -1.9895700000     0.7409460000
| 21>  H        2.3424910000     1.0544500000     0.3296460000
| 22>  H        3.2373970000    -2.4868680000    -1.3257870000
| 23> *
| 24>
| 25>                          ****END OF INPUT****
 Total Charge           Charge          ....    0
 Multiplicity           Mult            ....    1
 Number of Electrons    NEL             ....   58
 Basis Dimension        Dim             ....  122

MULLIKEN ATOMIC CHARGES
-----------------------
   0 C :   -0.026671
   1 C :    0.041925
   2 C :   -0.043915
   3 N :   -0.279449
   4 S :    0.420809
   5 N :   -0.261380
   6 C :    0.061462
   7 H :    0.038018
   8 H :    0.030761
   9 H :    0.005654
  10 H :    0.012788
Sum of atomic charges:   -0.0000000

LOEWDIN ATOMIC CHARGES
----------------------
   0 C :   -0.032026
   1 C :   -0.028912
   2 C :   -0.074323
   3 N :   -0.263840
   4 S :    0.569387
   5 N :   -0.251531
   6 C :   -0.045174
   7 H :    0.032744
   8 H :    0.025281
   9 H :    0.039872
  10 H :    0.028523

  Mayer bond orders larger than 0.1
B(  0-C ,  1-C ) :   1.9169 B(  0-C ,  7-H ) :   0.9377 B(  0-C ,  8-H ) :   0.9438
B(  1-C ,  2-C ) :   1.1055 B(  1-C ,  9-H ) :   0.9521 B(  2-C ,  3-N ) :   1.5417
B(  2-C ,  4-S ) :   0.1115 B(  2-C ,  6-C ) :   1.2133 B(  3-N ,  4-S ) :   1.2323
B(  3-N ,  5-N ) :   0.1388 B(  4-S ,  5-N ) :   1.2257 B(  5-N ,  6-C ) :   1.6172
B(  6-C , 10-H ) :   0.9756

FINAL SINGLE POINT ENERGY      -661.680366230672

DIPOLE MOMENT
-------------
                                X             Y             Z
Electronic contribution:      3.94961       2.23452      -7.50162
Nuclear contribution   :     -4.21195      -2.44790       8.00179
                        -----------------------------------------
Total Dipole Moment    :     -0.26234      -0.21338       0.50017
                        -----------------------------------------
Magnitude (a.u.)       :      0.60376
Magnitude (Debye)      :      1.53463

                             ****ORCA TERMINATED NORMALLY****
TOTAL RUN TIME: 0 days 0 hours 0 minutes 6 seconds 32 msec
