                         Program Version 3.0.3 - RELEASE   -
|  1> ! RI PBE def2-SVP def2-SVP/J NBO PAL2
|  2> % maxcore 2000
|  3> % output
|  4>     # printlevel mini
|  5>     print[ P_Basis ] 0
|  6>     print[ P_SCFInfo ] 1
|  7>     print[ P_SCFIterInfo ] 1
|  8>     print[ P_OrbEn ] 0
|  9>     print[ P_Cartesian ] 0
| 10> end
| 11> *xyz 0 1
| 12>  C        0.9489120000     0.0731670000     0.0131730000
| 13>  C        2.1484490000     0.1327190000     0.0137750000
| 14>  C        3.5663160000     0.1541270000     0.0144000000
| 15>  N        4.2555080000     1.2865310000     0.0166420000
| 16>  S        5.8177880000     0.8882140000     0.0166020000
| 17>  N        5.6821820000    -0.7269280000     0.0137560000
| 18>  C        4.3995990000    -1.0011310000     0.0127510000
| 19>  H       -0.1151230000     0.0349600000     0.0126660000
| 20>  H        4.0507590000    -2.0258580000     0.0108360000
| 21> *
| 22>
| 23>                          ****END OF INPUT****
 Total Charge           Charge          ....    0
 Multiplicity           Mult            ....    1
 Number of Electrons    NEL             ....   56
 Basis Dimension        Dim             ....  112

MULLIKEN ATOMIC CHARGES
-----------------------
   0 C :   -0.439021
   1 C :    0.476410
   2 C :   -0.100069
   3 N :   -0.257617
   4 S :    0.437789
   5 N :   -0.258091
   6 C :    0.105652
   7 H :    0.017121
   8 H :    0.017826
Sum of atomic charges:    0.0000000

LOEWDIN ATOMIC CHARGES
----------------------
   0 C :   -0.026965
   1 C :   -0.019348
   2 C :   -0.087740
   3 N :   -0.248001
   4 S :    0.587073
   5 N :   -0.249478
   6 C :   -0.032177
   7 H :    0.041431
   8 H :    0.035205

  Mayer bond orders larger than 0.1
B(  0-C ,  1-C ) :   2.2631 B(  0-C ,  7-H ) :   1.0917 B(  1-C ,  2-C ) :   0.9634
B(  1-C ,  7-H ) :  -0.1026 B(  2-C ,  3-N ) :   1.5425 B(  2-C ,  4-S ) :   0.1245
B(  2-C ,  6-C ) :   1.2268 B(  3-N ,  4-S ) :   1.2384 B(  3-N ,  5-N ) :   0.1403
B(  4-S ,  5-N ) :   1.2338 B(  5-N ,  6-C ) :   1.5961 B(  6-C ,  8-H ) :   0.9824

FINAL SINGLE POINT ENERGY      -660.431485549895

DIPOLE MOMENT
-------------
                                X             Y             Z
Electronic contribution:      3.85559       2.03636       0.00506
Nuclear contribution   :     -4.22674      -2.33942      -0.00579
                        -----------------------------------------
Total Dipole Moment    :     -0.37115      -0.30305      -0.00073
                        -----------------------------------------
Magnitude (a.u.)       :      0.47916
Magnitude (Debye)      :      1.21793

                             ****ORCA TERMINATED NORMALLY****
TOTAL RUN TIME: 0 days 0 hours 0 minutes 5 seconds 388 msec
