                         Program Version 3.0.3 - RELEASE   -
|  1> ! RI PBE def2-SVP def2-SVP/J NBO PAL2
|  2> % maxcore 2000
|  3> % output
|  4>     # printlevel mini
|  5>     print[ P_Basis ] 0
|  6>     print[ P_SCFInfo ] 1
|  7>     print[ P_SCFIterInfo ] 1
|  8>     print[ P_OrbEn ] 0
|  9>     print[ P_Cartesian ] 0
| 10> end
| 11> *xyz 0 1
| 12>  C        0.8351740000     0.0575120000    -0.1239530000
| 13>  C        2.3373000000     0.0831790000     0.1392910000
| 14>  C        2.7260790000    -0.7388920000     1.3247580000
| 15>  N        2.6773340000    -2.0579150000     1.2932860000
| 16>  S        3.1386400000    -2.5987810000     2.7469540000
| 17>  N        3.4186680000    -1.1791720000     3.4736700000
| 18>  C        3.1539830000    -0.2454860000     2.5861030000
| 19>  H        0.5880770000     0.6503450000    -1.0069440000
| 20>  H        0.2788910000     0.4642550000     0.7237380000
| 21>  H        0.4939240000    -0.9655260000    -0.2909610000
| 22>  H        2.6747990000     1.1111650000     0.2969540000
| 23>  H        2.8697330000    -0.2972620000    -0.7366420000
| 24>  H        3.2726090000     0.7997880000     2.8462550000
| 25> *
| 26>
| 27>                          ****END OF INPUT****
 Total Charge           Charge          ....    0
 Multiplicity           Mult            ....    1
 Number of Electrons    NEL             ....   60
 Basis Dimension        Dim             ....  132

MULLIKEN ATOMIC CHARGES
-----------------------
   0 C :   -0.026230
   1 C :    0.099227
   2 C :   -0.129224
   3 N :   -0.284931
   4 S :    0.413420
   5 N :   -0.266622
   6 C :    0.057594
   7 H :    0.027839
   8 H :    0.023767
   9 H :    0.039973
  10 H :    0.004285
  11 H :    0.031873
  12 H :    0.009030
Sum of atomic charges:   -0.0000000

LOEWDIN ATOMIC CHARGES
----------------------
   0 C :   -0.056690
   1 C :   -0.041935
   2 C :   -0.067310
   3 N :   -0.270538
   4 S :    0.564978
   5 N :   -0.257627
   6 C :   -0.062286
   7 H :    0.029389
   8 H :    0.027827
   9 H :    0.032062
  10 H :    0.031939
  11 H :    0.042426
  12 H :    0.027765

  Mayer bond orders larger than 0.1
B(  0-C ,  1-C ) :   1.1196 B(  0-C ,  7-H ) :   0.9628 B(  0-C ,  8-H ) :   0.9653
B(  0-C ,  9-H ) :   0.9669 B(  1-C ,  2-C ) :   1.0622 B(  1-C , 10-H ) :   0.9170
B(  1-C , 11-H ) :   0.9094 B(  2-C ,  3-N ) :   1.5630 B(  2-C ,  4-S ) :   0.1114
B(  2-C ,  6-C ) :   1.2532 B(  3-N ,  4-S ) :   1.2242 B(  3-N ,  5-N ) :   0.1502
B(  4-S ,  5-N ) :   1.2455 B(  5-N ,  6-C ) :   1.5873 B(  6-C , 12-H ) :   0.9790

FINAL SINGLE POINT ENERGY      -662.900910229504

DIPOLE MOMENT
-------------
                                X             Y             Z
Electronic contribution:      5.34234      -7.90250       7.96446
Nuclear contribution   :     -5.49894       8.44534      -8.35278
                        -----------------------------------------
Total Dipole Moment    :     -0.15659       0.54284      -0.38832
                        -----------------------------------------
Magnitude (a.u.)       :      0.68556
Magnitude (Debye)      :      1.74255

                             ****ORCA TERMINATED NORMALLY****
TOTAL RUN TIME: 0 days 0 hours 0 minutes 6 seconds 318 msec
