                         Program Version 3.0.3 - RELEASE   -
|  1> ! RI PBE def2-SVP def2-SVP/J NBO PAL2
|  2> % maxcore 2000
|  3> % output
|  4>     # printlevel mini
|  5>     print[ P_Basis ] 0
|  6>     print[ P_SCFInfo ] 1
|  7>     print[ P_SCFIterInfo ] 1
|  8>     print[ P_OrbEn ] 0
|  9>     print[ P_Cartesian ] 0
| 10> end
| 11> *xyz 0 1
| 12>  C        1.1502210000    -0.3931220000    -0.3452280000
| 13>  C        2.1907630000     0.1187400000     0.3058560000
| 14>  C        2.9664870000    -0.5979390000     1.3063080000
| 15>  C        4.0387990000    -0.0757900000     1.9798010000
| 16>  S        4.6743070000    -1.2249180000     3.0629120000
| 17>  C        3.4674570000    -2.3358340000     2.5503840000
| 18>  N        2.6582240000    -1.8904560000     1.6484640000
| 19>  H        0.6099920000     0.1894410000    -1.0810850000
| 20>  H        0.8191750000    -1.4068450000    -0.1533260000
| 21>  H        2.5115440000     1.1365240000     0.1032690000
| 22>  H        4.4671280000     0.9099400000     1.8843550000
| 23>  H        3.4145140000    -3.3313300000     2.9718900000
| 24> *
| 25>
| 26>                          ****END OF INPUT****
 Total Charge           Charge          ....    0
 Multiplicity           Mult            ....    1
 Number of Electrons    NEL             ....   58
 Basis Dimension        Dim             ....  127

MULLIKEN ATOMIC CHARGES
-----------------------
   0 C :   -0.004753
   1 C :    0.006158
   2 C :    0.010952
   3 C :   -0.107632
   4 S :    0.093650
   5 C :   -0.010946
   6 N :   -0.095806
   7 H :    0.024844
   8 H :    0.033592
   9 H :   -0.021367
  10 H :    0.024020
  11 H :    0.047288
Sum of atomic charges:    0.0000000

LOEWDIN ATOMIC CHARGES
----------------------
   0 C :   -0.032566
   1 C :   -0.040211
   2 C :   -0.051317
   3 C :   -0.212429
   4 S :    0.433440
   5 C :   -0.149061
   6 N :   -0.084013
   7 H :    0.026301
   8 H :    0.029020
   9 H :    0.029713
  10 H :    0.029564
  11 H :    0.021561

  Mayer bond orders larger than 0.1
B(  0-C ,  1-C ) :   1.9223 B(  0-C ,  7-H ) :   0.9357 B(  0-C ,  8-H ) :   0.9361
B(  1-C ,  2-C ) :   1.1272 B(  1-C ,  9-H ) :   0.9489 B(  2-C ,  3-C ) :   1.4817
B(  2-C ,  6-N ) :   1.3525 B(  3-C ,  4-S ) :   1.1716 B(  3-C , 10-H ) :   0.9561
B(  4-S ,  5-C ) :   1.1564 B(  4-S ,  6-N ) :   0.1270 B(  5-C ,  6-N ) :   1.6826
B(  5-C , 11-H ) :   0.9565

FINAL SINGLE POINT ENERGY      -645.669991926332

DIPOLE MOMENT
-------------
                                X             Y             Z
Electronic contribution:      4.76166      -1.92856       4.98102
Nuclear contribution   :     -4.35162       2.20024      -4.75859
                        -----------------------------------------
Total Dipole Moment    :      0.41004       0.27168       0.22244
                        -----------------------------------------
Magnitude (a.u.)       :      0.53983
Magnitude (Debye)      :      1.37214

                             ****ORCA TERMINATED NORMALLY****
TOTAL RUN TIME: 0 days 0 hours 0 minutes 6 seconds 181 msec
