                         Program Version 3.0.3 - RELEASE   -
|  1> ! RI PBE def2-SVP def2-SVP/J NBO PAL2
|  2> % maxcore 2000
|  3> % output
|  4>     # printlevel mini
|  5>     print[ P_Basis ] 0
|  6>     print[ P_SCFInfo ] 1
|  7>     print[ P_SCFIterInfo ] 1
|  8>     print[ P_OrbEn ] 0
|  9>     print[ P_Cartesian ] 0
| 10> end
| 11> *xyz 0 1
| 12>  C        0.9544120000    -0.1230960000     0.0046180000
| 13>  C        2.1555560000    -0.0980160000     0.0070280000
| 14>  C        3.5741070000    -0.0452040000     0.0097900000
| 15>  C        4.3030160000     1.1154620000     0.0069770000
| 16>  S        5.9625080000     0.7549900000     0.0117850000
| 17>  C        5.5803190000    -0.9198250000     0.0172410000
| 18>  N        4.3184620000    -1.1980720000     0.0156470000
| 19>  H       -0.1093980000    -0.1556330000     0.0025240000
| 20>  H        3.9332590000     2.1283250000     0.0024240000
| 21>  H        6.3614500000    -1.6685420000     0.0216660000
| 22> *
| 23>
| 24>                          ****END OF INPUT****
 Total Charge           Charge          ....    0
 Multiplicity           Mult            ....    1
 Number of Electrons    NEL             ....   56
 Basis Dimension        Dim             ....  117

MULLIKEN ATOMIC CHARGES
-----------------------
   0 C :   -0.459348
   1 C :    0.469918
   2 C :   -0.065615
   3 C :   -0.049637
   4 S :    0.103013
   5 C :   -0.009744
   6 N :   -0.079434
   7 H :    0.009243
   8 H :    0.029465
   9 H :    0.052138
Sum of atomic charges:   -0.0000000

LOEWDIN ATOMIC CHARGES
----------------------
   0 C :   -0.047102
   1 C :   -0.014879
   2 C :   -0.067407
   3 C :   -0.191685
   4 S :    0.447387
   5 C :   -0.151016
   6 N :   -0.073028
   7 H :    0.037750
   8 H :    0.035713
   9 H :    0.024269

  Mayer bond orders larger than 0.1
B(  0-C ,  1-C ) :   2.2601 B(  0-C ,  7-H ) :   1.0946 B(  1-C ,  2-C ) :   0.9645
B(  1-C ,  7-H ) :  -0.1052 B(  2-C ,  3-C ) :   1.5016 B(  2-C ,  6-N ) :   1.3588
B(  3-C ,  4-S ) :   1.1763 B(  3-C ,  8-H ) :   0.9644 B(  4-S ,  5-C ) :   1.1532
B(  4-S ,  6-N ) :   0.1221 B(  5-C ,  6-N ) :   1.6748 B(  5-C ,  9-H ) :   0.9564

FINAL SINGLE POINT ENERGY      -644.420097206444

DIPOLE MOMENT
-------------
                                X             Y             Z
Electronic contribution:      2.74161       0.50017       0.00372
Nuclear contribution   :     -2.37949       0.08093      -0.00526
                        -----------------------------------------
Total Dipole Moment    :      0.36213       0.58109      -0.00154
                        -----------------------------------------
Magnitude (a.u.)       :      0.68470
Magnitude (Debye)      :      1.74036

                             ****ORCA TERMINATED NORMALLY****
TOTAL RUN TIME: 0 days 0 hours 0 minutes 5 seconds 490 msec
