                         Program Version 3.0.3 - RELEASE   -
|  1> ! RI PBE def2-SVP def2-SVP/J NBO PAL2
|  2> % maxcore 2000
|  3> % output
|  4>     # printlevel mini
|  5>     print[ P_Basis ] 0
|  6>     print[ P_SCFInfo ] 1
|  7>     print[ P_SCFIterInfo ] 1
|  8>     print[ P_OrbEn ] 0
|  9>     print[ P_Cartesian ] 0
| 10> end
| 11> *xyz 0 1
| 12>  C        0.9359530000    -0.0928410000     0.2213890000
| 13>  C        2.4246800000    -0.0514530000    -0.1027760000
| 14>  C        2.8768860000    -1.2417320000    -0.8836700000
| 15>  C        3.3787740000    -1.2293290000    -2.1523540000
| 16>  S        3.7559080000    -2.8151440000    -2.6546250000
| 17>  C        3.2170830000    -3.3978970000    -1.1353810000
| 18>  N        2.7910760000    -2.4872470000    -0.3199620000
| 19>  H        0.6472950000     0.7657890000     0.8316180000
| 20>  H        0.6906800000    -1.0029230000     0.7713140000
| 21>  H        0.3355760000    -0.0785180000    -0.6913560000
| 22>  H        2.9977280000    -0.0143710000     0.8295660000
| 23>  H        2.6675720000     0.8563190000    -0.6609800000
| 24>  H        3.5414450000    -0.3797160000    -2.7973180000
| 25>  H        3.2454440000    -4.4540590000    -0.9010940000
| 26> *
| 27>
| 28>                          ****END OF INPUT****
 Total Charge           Charge          ....    0
 Multiplicity           Mult            ....    1
 Number of Electrons    NEL             ....   60
 Basis Dimension        Dim             ....  137

MULLIKEN ATOMIC CHARGES
-----------------------
   0 C :   -0.034323
   1 C :    0.113779
   2 C :   -0.091187
   3 C :   -0.103514
   4 S :    0.081207
   5 C :   -0.019140
   6 N :   -0.107276
   7 H :    0.021953
   8 H :    0.038802
   9 H :    0.020116
  10 H :    0.023491
  11 H :   -0.008603
  12 H :    0.019314
  13 H :    0.045381
Sum of atomic charges:   -0.0000000

LOEWDIN ATOMIC CHARGES
----------------------
   0 C :   -0.060533
   1 C :   -0.039223
   2 C :   -0.047049
   3 C :   -0.224243
   4 S :    0.426031
   5 C :   -0.158581
   6 N :   -0.094857
   7 H :    0.026605
   8 H :    0.030553
   9 H :    0.026439
  10 H :    0.039195
  11 H :    0.028309
  12 H :    0.027461
  13 H :    0.019893

  Mayer bond orders larger than 0.1
B(  0-C ,  1-C ) :   1.1165 B(  0-C ,  7-H ) :   0.9617 B(  0-C ,  8-H ) :   0.9660
B(  0-C ,  9-H ) :   0.9649 B(  1-C ,  2-C ) :   1.0725 B(  1-C , 10-H ) :   0.9045
B(  1-C , 11-H ) :   0.9155 B(  2-C ,  3-C ) :   1.5536 B(  2-C ,  6-N ) :   1.3459
B(  3-C ,  4-S ) :   1.1585 B(  3-C , 12-H ) :   0.9583 B(  4-S ,  5-C ) :   1.1703
B(  4-S ,  6-N ) :   0.1321 B(  5-C ,  6-N ) :   1.6585 B(  5-C , 13-H ) :   0.9585

FINAL SINGLE POINT ENERGY      -646.888748963645

DIPOLE MOMENT
-------------
                                X             Y             Z
Electronic contribution:      5.91515      -7.45740      -6.14144
Nuclear contribution   :     -5.79903       7.68629       5.76571
                        -----------------------------------------
Total Dipole Moment    :      0.11612       0.22889      -0.37574
                        -----------------------------------------
Magnitude (a.u.)       :      0.45503
Magnitude (Debye)      :      1.15659

                             ****ORCA TERMINATED NORMALLY****
TOTAL RUN TIME: 0 days 0 hours 0 minutes 6 seconds 590 msec
