                         Program Version 3.0.3 - RELEASE   -
|  1> ! RI PBE def2-SVP def2-SVP/J NBO PAL2
|  2> % maxcore 2000
|  3> % output
|  4>     # printlevel mini
|  5>     print[ P_Basis ] 0
|  6>     print[ P_SCFInfo ] 1
|  7>     print[ P_SCFIterInfo ] 1
|  8>     print[ P_OrbEn ] 0
|  9>     print[ P_Cartesian ] 0
| 10> end
| 11> *xyz 0 1
| 12>  C        0.9618310000     0.1806850000     0.1839690000
| 13>  C        2.2875070000     0.1075140000     0.2558860000
| 14>  C        3.0374590000    -1.1326150000     0.3783770000
| 15>  C        4.4034640000    -1.2542820000     0.4557340000
| 16>  S        4.7868720000    -2.8822650000     0.5858920000
| 17>  N        3.1674800000    -3.3476010000     0.5361370000
| 18>  N        2.4025930000    -2.3430510000     0.4290110000
| 19>  H        0.4632840000     1.1376040000     0.0935170000
| 20>  H        0.3482750000    -0.7116960000     0.2138870000
| 21>  H        2.8835210000     1.0145070000     0.2241000000
| 22>  H        5.1378330000    -0.4639100000     0.4388990000
| 23> *
| 24>
| 25>                          ****END OF INPUT****
 Total Charge           Charge          ....    0
 Multiplicity           Mult            ....    1
 Number of Electrons    NEL             ....   58
 Basis Dimension        Dim             ....  122

MULLIKEN ATOMIC CHARGES
-----------------------
   0 C :    0.005313
   1 C :    0.002372
   2 C :    0.045319
   3 C :   -0.145877
   4 S :    0.277952
   5 N :   -0.203979
   6 N :   -0.080628
   7 H :    0.028706
   8 H :    0.045954
   9 H :   -0.012271
  10 H :    0.037140
Sum of atomic charges:   -0.0000000

LOEWDIN ATOMIC CHARGES
----------------------
   0 C :   -0.019162
   1 C :   -0.042864
   2 C :   -0.074805
   3 C :   -0.212774
   4 S :    0.491960
   5 N :   -0.218734
   6 N :   -0.056373
   7 H :    0.029433
   8 H :    0.033287
   9 H :    0.032832
  10 H :    0.037199

  Mayer bond orders larger than 0.1
B(  0-C ,  1-C ) :   1.9334 B(  0-C ,  7-H ) :   0.9330 B(  0-C ,  8-H ) :   0.9393
B(  1-C ,  2-C ) :   1.1228 B(  1-C ,  9-H ) :   0.9504 B(  2-C ,  3-C ) :   1.4089
B(  2-C ,  6-N ) :   1.3347 B(  3-C ,  4-S ) :   1.2481 B(  3-C ,  5-N ) :   0.1232
B(  3-C , 10-H ) :   0.9574 B(  4-S ,  5-N ) :   1.1236 B(  4-S ,  6-N ) :   0.1839
B(  5-N ,  6-N ) :   1.5003

FINAL SINGLE POINT ENERGY      -661.662227067982

DIPOLE MOMENT
-------------
                                X             Y             Z
Electronic contribution:      4.83986      -6.49516       0.68517
Nuclear contribution   :     -4.10240       7.50658      -0.71910
                        -----------------------------------------
Total Dipole Moment    :      0.73746       1.01143      -0.03393
                        -----------------------------------------
Magnitude (a.u.)       :      1.25219
Magnitude (Debye)      :      3.18281

                             ****ORCA TERMINATED NORMALLY****
TOTAL RUN TIME: 0 days 0 hours 0 minutes 5 seconds 863 msec
