                         Program Version 3.0.3 - RELEASE   -
|  1> ! RI PBE def2-SVP def2-SVP/J NBO PAL2
|  2> % maxcore 2000
|  3> % output
|  4>     # printlevel mini
|  5>     print[ P_Basis ] 0
|  6>     print[ P_SCFInfo ] 1
|  7>     print[ P_SCFIterInfo ] 1
|  8>     print[ P_OrbEn ] 0
|  9>     print[ P_Cartesian ] 0
| 10> end
| 11> *xyz 0 1
| 12>  C        1.0330220000    -0.0925350000     0.0403940000
| 13>  C        2.2335510000    -0.0672500000     0.0423650000
| 14>  C        3.6487400000    -0.0208030000     0.0446390000
| 15>  C        4.4228190000     1.1148720000     0.0426200000
| 16>  S        6.0309120000     0.6482720000     0.0467250000
| 17>  N        5.6429870000    -0.9911550000     0.0508760000
| 18>  N        4.3894090000    -1.1745760000     0.0492750000
| 19>  H       -0.0310760000    -0.1256610000     0.0386770000
| 20>  H        4.0835360000     2.1386260000     0.0390380000
| 21> *
| 22>
| 23>                          ****END OF INPUT****
 Total Charge           Charge          ....    0
 Multiplicity           Mult            ....    1
 Number of Electrons    NEL             ....   56
 Basis Dimension        Dim             ....  112

MULLIKEN ATOMIC CHARGES
-----------------------
   0 C :   -0.444608
   1 C :    0.472658
   2 C :   -0.026666
   3 C :   -0.091902
   4 S :    0.291855
   5 N :   -0.201454
   6 N :   -0.059277
   7 H :    0.016766
   8 H :    0.042627
Sum of atomic charges:    0.0000000

LOEWDIN ATOMIC CHARGES
----------------------
   0 C :   -0.028939
   1 C :   -0.020068
   2 C :   -0.089027
   3 C :   -0.191504
   4 S :    0.506412
   5 N :   -0.216658
   6 N :   -0.044787
   7 H :    0.041172
   8 H :    0.043399

  Mayer bond orders larger than 0.1
B(  0-C ,  1-C ) :   2.2542 B(  0-C ,  7-H ) :   1.0921 B(  1-C ,  2-C ) :   0.9775
B(  1-C ,  7-H ) :  -0.1027 B(  2-C ,  3-C ) :   1.4262 B(  2-C ,  6-N ) :   1.3264
B(  3-C ,  4-S ) :   1.2532 B(  3-C ,  5-N ) :   0.1185 B(  3-C ,  8-H ) :   0.9650
B(  4-S ,  5-N ) :   1.1200 B(  4-S ,  6-N ) :   0.1806 B(  5-N ,  6-N ) :   1.4962

FINAL SINGLE POINT ENERGY      -660.412218975398

DIPOLE MOMENT
-------------
                                X             Y             Z
Electronic contribution:      3.95078      -0.52980       0.00815
Nuclear contribution   :     -4.31816       1.79541      -0.01262
                        -----------------------------------------
Total Dipole Moment    :     -0.36738       1.26561      -0.00447
                        -----------------------------------------
Magnitude (a.u.)       :      1.31786
Magnitude (Debye)      :      3.34973

                             ****ORCA TERMINATED NORMALLY****
TOTAL RUN TIME: 0 days 0 hours 0 minutes 5 seconds 237 msec
