                         Program Version 3.0.3 - RELEASE   -
|  1> ! RI PBE def2-SVP def2-SVP/J NBO PAL2
|  2> % maxcore 2000
|  3> % output
|  4>     # printlevel mini
|  5>     print[ P_Basis ] 0
|  6>     print[ P_SCFInfo ] 1
|  7>     print[ P_SCFIterInfo ] 1
|  8>     print[ P_OrbEn ] 0
|  9>     print[ P_Cartesian ] 0
| 10> end
| 11> *xyz 0 1
| 12>  C        0.8902030000    -0.1299600000    -0.2134720000
| 13>  C        2.3887060000     0.0058820000     0.0336320000
| 14>  C        2.7590820000     1.3365020000     0.5994030000
| 15>  C        3.2168310000     1.6160130000     1.8593370000
| 16>  S        3.4591880000     3.2744840000     1.9784770000
| 17>  N        2.9602430000     3.5437000000     0.3986820000
| 18>  N        2.6349330000     2.4542710000    -0.1719320000
| 19>  H        0.6592790000    -1.0990600000    -0.6605690000
| 20>  H        0.5410940000     0.6514970000    -0.8904600000
| 21>  H        0.3285350000    -0.0434780000     0.7195350000
| 22>  H        2.9279410000    -0.1276780000    -0.9089840000
| 23>  H        2.7347460000    -0.7782660000     0.7112460000
| 24>  H        3.4056500000     0.9228840000     2.6644840000
| 25> *
| 26>
| 27>                          ****END OF INPUT****
 Total Charge           Charge          ....    0
 Multiplicity           Mult            ....    1
 Number of Electrons    NEL             ....   60
 Basis Dimension        Dim             ....  132

MULLIKEN ATOMIC CHARGES
-----------------------
   0 C :   -0.030771
   1 C :    0.106714
   2 C :   -0.053756
   3 C :   -0.148878
   4 S :    0.270725
   5 N :   -0.211106
   6 N :   -0.091527
   7 H :    0.025954
   8 H :    0.045561
   9 H :    0.021908
  10 H :    0.031417
  11 H :    0.000391
  12 H :    0.033368
Sum of atomic charges:    0.0000000

LOEWDIN ATOMIC CHARGES
----------------------
   0 C :   -0.058283
   1 C :   -0.039028
   2 C :   -0.070920
   3 C :   -0.222434
   4 S :    0.487432
   5 N :   -0.228439
   6 N :   -0.068706
   7 H :    0.029365
   8 H :    0.033371
   9 H :    0.027523
  10 H :    0.042964
  11 H :    0.031840
  12 H :    0.035316

  Mayer bond orders larger than 0.1
B(  0-C ,  1-C ) :   1.1163 B(  0-C ,  7-H ) :   0.9608 B(  0-C ,  8-H ) :   0.9674
B(  0-C ,  9-H ) :   0.9647 B(  1-C ,  2-C ) :   1.0779 B(  1-C , 10-H ) :   0.9071
B(  1-C , 11-H ) :   0.9139 B(  2-C ,  3-C ) :   1.4681 B(  2-C ,  6-N ) :   1.3316
B(  3-C ,  4-S ) :   1.2396 B(  3-C ,  5-N ) :   0.1365 B(  3-C , 12-H ) :   0.9584
B(  4-S ,  5-N ) :   1.1399 B(  4-S ,  6-N ) :   0.1879 B(  5-N ,  6-N ) :   1.4757

FINAL SINGLE POINT ENERGY      -662.881993676726

DIPOLE MOMENT
-------------
                                X             Y             Z
Electronic contribution:      5.52378      10.38817       4.03290
Nuclear contribution   :     -5.41817     -11.44157      -3.22179
                        -----------------------------------------
Total Dipole Moment    :      0.10561      -1.05340       0.81111
                        -----------------------------------------
Magnitude (a.u.)       :      1.33368
Magnitude (Debye)      :      3.38995

                             ****ORCA TERMINATED NORMALLY****
TOTAL RUN TIME: 0 days 0 hours 0 minutes 6 seconds 548 msec
