                         Program Version 3.0.3 - RELEASE   -
|  1> ! RI PBE def2-SVP def2-SVP/J NBO PAL2
|  2> % maxcore 2000
|  3> % output
|  4>     # printlevel mini
|  5>     print[ P_Basis ] 0
|  6>     print[ P_SCFInfo ] 1
|  7>     print[ P_SCFIterInfo ] 1
|  8>     print[ P_OrbEn ] 0
|  9>     print[ P_Cartesian ] 0
| 10> end
| 11> *xyz 0 1
| 12>  C        0.7515900000     0.0321890000    -0.1145520000
| 13>  C        2.0242870000    -0.0181440000     0.2686430000
| 14>  C        2.7473430000    -1.1997680000     0.6984730000
| 15>  N        4.0006790000    -1.1649010000     1.0604460000
| 16>  C        4.4455850000    -2.3972450000     1.4178430000
| 17>  C        3.5330890000    -3.4037970000     1.3347800000
| 18>  S        2.0447610000    -2.7818790000     0.7829230000
| 19>  H        0.2994170000     0.9671960000    -0.4194220000
| 20>  H        0.1185070000    -0.8489150000    -0.1384570000
| 21>  H        2.6334710000     0.8804470000     0.2823260000
| 22>  H        5.4707930000    -2.5199000000     1.7417320000
| 23>  H        3.6589700000    -4.4503830000     1.5642650000
| 24> *
| 25>
| 26>                          ****END OF INPUT****
 Total Charge           Charge          ....    0
 Multiplicity           Mult            ....    1
 Number of Electrons    NEL             ....   58
 Basis Dimension        Dim             ....  127

MULLIKEN ATOMIC CHARGES
-----------------------
   0 C :   -0.035497
   1 C :    0.055421
   2 C :   -0.133740
   3 N :   -0.096297
   4 C :    0.074501
   5 C :   -0.089965
   6 S :    0.106149
   7 H :    0.036938
   8 H :    0.031305
   9 H :    0.009387
  10 H :    0.005294
  11 H :    0.036504
Sum of atomic charges:   -0.0000000

LOEWDIN ATOMIC CHARGES
----------------------
   0 C :   -0.042296
   1 C :   -0.043262
   2 C :   -0.160549
   3 N :   -0.090856
   4 C :   -0.039915
   5 C :   -0.209852
   6 S :    0.430779
   7 H :    0.032001
   8 H :    0.022269
   9 H :    0.043911
  10 H :    0.026914
  11 H :    0.030855

  Mayer bond orders larger than 0.1
B(  0-C ,  1-C ) :   1.8966 B(  0-C ,  7-H ) :   0.9401 B(  0-C ,  8-H ) :   0.9444
B(  1-C ,  2-C ) :   1.1171 B(  1-C ,  9-H ) :   0.9496 B(  2-C ,  3-N ) :   1.6463
B(  2-C ,  6-S ) :   1.1024 B(  3-N ,  4-C ) :   1.3657 B(  3-N ,  6-S ) :   0.1191
B(  4-C ,  5-C ) :   1.5233 B(  4-C , 10-H ) :   0.9846 B(  5-C ,  6-S ) :   1.1820
B(  5-C , 11-H ) :   0.9620

FINAL SINGLE POINT ENERGY      -645.670785875092

DIPOLE MOMENT
-------------
                                X             Y             Z
Electronic contribution:      0.74408      -3.09158       0.79018
Nuclear contribution   :     -1.03924       2.67788      -0.79773
                        -----------------------------------------
Total Dipole Moment    :     -0.29515      -0.41370      -0.00755
                        -----------------------------------------
Magnitude (a.u.)       :      0.50825
Magnitude (Debye)      :      1.29188

                             ****ORCA TERMINATED NORMALLY****
TOTAL RUN TIME: 0 days 0 hours 0 minutes 6 seconds 710 msec
