                         Program Version 3.0.3 - RELEASE   -
|  1> ! RI PBE def2-SVP def2-SVP/J NBO PAL2
|  2> % maxcore 2000
|  3> % output
|  4>     # printlevel mini
|  5>     print[ P_Basis ] 0
|  6>     print[ P_SCFInfo ] 1
|  7>     print[ P_SCFIterInfo ] 1
|  8>     print[ P_OrbEn ] 0
|  9>     print[ P_Cartesian ] 0
| 10> end
| 11> *xyz 0 1
| 12>  C        0.9737990000     0.0423910000     0.0344400000
| 13>  C        2.1753350000     0.0174290000     0.0316020000
| 14>  C        3.5860240000    -0.0551460000     0.0284430000
| 15>  N        4.3936400000     0.9714870000     0.0235780000
| 16>  C        5.6862720000     0.5629840000     0.0216530000
| 17>  C        5.8879590000    -0.7860120000     0.0250170000
| 18>  S        4.3886820000    -1.5881560000     0.0308300000
| 19>  H       -0.0900880000     0.0794090000     0.0369440000
| 20>  H        6.4755560000     1.3031250000     0.0176630000
| 21>  H        6.8213190000    -1.3272910000     0.0243300000
| 22> *
| 23>
| 24>                          ****END OF INPUT****
 Total Charge           Charge          ....    0
 Multiplicity           Mult            ....    1
 Number of Electrons    NEL             ....   56
 Basis Dimension        Dim             ....  117

MULLIKEN ATOMIC CHARGES
-----------------------
   0 C :   -0.427157
   1 C :    0.475855
   2 C :   -0.181202
   3 N :   -0.068950
   4 C :    0.070355
   5 C :   -0.078340
   6 S :    0.143501
   7 H :    0.016476
   8 H :    0.011312
   9 H :    0.038150
Sum of atomic charges:   -0.0000000

LOEWDIN ATOMIC CHARGES
----------------------
   0 C :   -0.028609
   1 C :   -0.036097
   2 C :   -0.176787
   3 N :   -0.073980
   4 C :   -0.036469
   5 C :   -0.210097
   6 S :    0.458984
   7 H :    0.040606
   8 H :    0.029654
   9 H :    0.032796

  Mayer bond orders larger than 0.1
B(  0-C ,  1-C ) :   2.2667 B(  0-C ,  7-H ) :   1.0882 B(  1-C ,  2-C ) :   1.0049
B(  2-C ,  3-N ) :   1.6426 B(  2-C ,  6-S ) :   1.1183 B(  3-N ,  4-C ) :   1.3732
B(  3-N ,  6-S ) :   0.1262 B(  4-C ,  5-C ) :   1.5031 B(  4-C ,  8-H ) :   0.9832
B(  5-C ,  6-S ) :   1.1855 B(  5-C ,  9-H ) :   0.9609

FINAL SINGLE POINT ENERGY      -644.421316080398

DIPOLE MOMENT
-------------
                                X             Y             Z
Electronic contribution:     -0.88911      -1.70666       0.00689
Nuclear contribution   :      1.15160       1.12285      -0.00582
                        -----------------------------------------
Total Dipole Moment    :      0.26248      -0.58380       0.00107
                        -----------------------------------------
Magnitude (a.u.)       :      0.64010
Magnitude (Debye)      :      1.62700

                             ****ORCA TERMINATED NORMALLY****
TOTAL RUN TIME: 0 days 0 hours 0 minutes 5 seconds 818 msec
