                         Program Version 3.0.3 - RELEASE   -
|  1> ! RI PBE def2-SVP def2-SVP/J NBO PAL2
|  2> % maxcore 2000
|  3> % output
|  4>     # printlevel mini
|  5>     print[ P_Basis ] 0
|  6>     print[ P_SCFInfo ] 1
|  7>     print[ P_SCFIterInfo ] 1
|  8>     print[ P_OrbEn ] 0
|  9>     print[ P_Cartesian ] 0
| 10> end
| 11> *xyz 0 1
| 12>  C        0.9075360000     0.3739200000    -0.0256160000
| 13>  C        2.3842970000     0.0185610000     0.1119410000
| 14>  C        2.7100570000    -1.3013830000    -0.5049510000
| 15>  N        2.6968740000    -1.5339420000    -1.7825160000
| 16>  C        3.0042820000    -2.8333100000    -2.0521200000
| 17>  C        3.2582160000    -3.6200060000    -0.9719990000
| 18>  S        3.1058300000    -2.6867160000     0.4474110000
| 19>  H        0.7086130000     1.3608170000     0.3976120000
| 20>  H        0.2793230000    -0.3528070000     0.4943270000
| 21>  H        0.6156400000     0.3831740000    -1.0767200000
| 22>  H        2.6767230000     0.0132010000     1.1650540000
| 23>  H        2.9939880000     0.7781040000    -0.3860850000
| 24>  H        3.0349730000    -3.1701210000    -3.0802000000
| 25>  H        3.5242560000    -4.6649120000    -0.9453390000
| 26> *
| 27>
| 28>                          ****END OF INPUT****
 Total Charge           Charge          ....    0
 Multiplicity           Mult            ....    1
 Number of Electrons    NEL             ....   60
 Basis Dimension        Dim             ....  137

MULLIKEN ATOMIC CHARGES
-----------------------
   0 C :   -0.018101
   1 C :    0.108125
   2 C :   -0.215407
   3 N :   -0.103034
   4 C :    0.067886
   5 C :   -0.100536
   6 S :    0.101127
   7 H :    0.023561
   8 H :    0.020574
   9 H :    0.040262
  10 H :    0.002486
  11 H :    0.037652
  12 H :    0.001781
  13 H :    0.033623
Sum of atomic charges:    0.0000000

LOEWDIN ATOMIC CHARGES
----------------------
   0 C :   -0.055909
   1 C :   -0.056634
   2 C :   -0.157224
   3 N :   -0.102779
   4 C :   -0.041729
   5 C :   -0.222592
   6 S :    0.422359
   7 H :    0.028155
   8 H :    0.027107
   9 H :    0.032037
  10 H :    0.028348
  11 H :    0.044951
  12 H :    0.024800
  13 H :    0.029110

  Mayer bond orders larger than 0.1
B(  0-C ,  1-C ) :   1.1151 B(  0-C ,  7-H ) :   0.9606 B(  0-C ,  8-H ) :   0.9643
B(  0-C ,  9-H ) :   0.9676 B(  1-C ,  2-C ) :   1.0578 B(  1-C , 10-H ) :   0.9112
B(  1-C , 11-H ) :   0.9104 B(  2-C ,  3-N ) :   1.6751 B(  2-C ,  6-S ) :   1.1410
B(  3-N ,  4-C ) :   1.3487 B(  3-N ,  6-S ) :   0.1209 B(  4-C ,  5-C ) :   1.5432
B(  4-C , 12-H ) :   0.9877 B(  5-C ,  6-S ) :   1.1721 B(  5-C , 13-H ) :   0.9620

FINAL SINGLE POINT ENERGY      -646.889977798565

DIPOLE MOMENT
-------------
                                X             Y             Z
Electronic contribution:      4.39009      -6.59943       0.42429
Nuclear contribution   :     -4.36140       6.43100      -0.03690
                        -----------------------------------------
Total Dipole Moment    :      0.02869      -0.16843       0.38739
                        -----------------------------------------
Magnitude (a.u.)       :      0.42339
Magnitude (Debye)      :      1.07617

                             ****ORCA TERMINATED NORMALLY****
TOTAL RUN TIME: 0 days 0 hours 0 minutes 6 seconds 622 msec
