                         Program Version 3.0.3 - RELEASE   -
|  1> ! RI PBE def2-SVP def2-SVP/J NBO PAL2
|  2> % maxcore 2000
|  3> % output
|  4>     # printlevel mini
|  5>     print[ P_Basis ] 0
|  6>     print[ P_SCFInfo ] 1
|  7>     print[ P_SCFIterInfo ] 1
|  8>     print[ P_OrbEn ] 0
|  9>     print[ P_Cartesian ] 0
| 10> end
| 11> *xyz 0 1
| 12>  C        0.8748990000    -0.1248680000    -0.0680840000
| 13>  C        2.1829740000    -0.1662710000     0.1670210000
| 14>  C        2.9315070000    -1.3451780000     0.5609070000
| 15>  N        4.2248270000    -1.3272920000     0.7803640000
| 16>  C        4.6296640000    -2.5697080000     1.1292430000
| 17>  N        3.7624350000    -3.5469740000     1.1984660000
| 18>  S        2.2972790000    -2.9240980000     0.8055390000
| 19>  H        0.3905520000     0.7985140000    -0.3590050000
| 20>  H        0.2422570000    -1.0022960000     0.0197010000
| 21>  H        2.7933420000     0.7261620000     0.0720450000
| 22>  H        5.6731650000    -2.7589800000     1.3519040000
| 23> *
| 24>
| 25>                          ****END OF INPUT****
 Total Charge           Charge          ....    0
 Multiplicity           Mult            ....    1
 Number of Electrons    NEL             ....   58
 Basis Dimension        Dim             ....  122

MULLIKEN ATOMIC CHARGES
-----------------------
   0 C :   -0.024580
   1 C :    0.057350
   2 C :   -0.155710
   3 N :   -0.127588
   4 C :    0.120943
   5 N :   -0.272846
   6 S :    0.273782
   7 H :    0.044888
   8 H :    0.037024
   9 H :    0.016928
  10 H :    0.029809
Sum of atomic charges:   -0.0000000

LOEWDIN ATOMIC CHARGES
----------------------
   0 C :   -0.022179
   1 C :   -0.042552
   2 C :   -0.164696
   3 N :   -0.107734
   4 C :   -0.020492
   5 N :   -0.265052
   6 S :    0.490690
   7 H :    0.035554
   8 H :    0.025343
   9 H :    0.045567
  10 H :    0.025551

  Mayer bond orders larger than 0.1
B(  0-C ,  1-C ) :   1.8976 B(  0-C ,  7-H ) :   0.9396 B(  0-C ,  8-H ) :   0.9484
B(  1-C ,  2-C ) :   1.1033 B(  1-C ,  9-H ) :   0.9480 B(  2-C ,  3-N ) :   1.6036
B(  2-C ,  5-N ) :   0.1445 B(  2-C ,  6-S ) :   1.1421 B(  3-N ,  4-C ) :   1.3554
B(  3-N ,  6-S ) :   0.1211 B(  4-C ,  5-N ) :   1.6025 B(  4-C , 10-H ) :   0.9671
B(  5-N ,  6-S ) :   1.1989

FINAL SINGLE POINT ENERGY      -661.691191967276

DIPOLE MOMENT
-------------
                                X             Y             Z
Electronic contribution:      1.60076      -4.61608       1.31312
Nuclear contribution   :     -2.21704       5.11244      -1.52992
                        -----------------------------------------
Total Dipole Moment    :     -0.61628       0.49636      -0.21680
                        -----------------------------------------
Magnitude (a.u.)       :      0.82048
Magnitude (Debye)      :      2.08549

                             ****ORCA TERMINATED NORMALLY****
TOTAL RUN TIME: 0 days 0 hours 0 minutes 5 seconds 656 msec
