                         Program Version 3.0.3 - RELEASE   -
|  1> ! RI PBE def2-SVP def2-SVP/J NBO PAL2
|  2> % maxcore 2000
|  3> % output
|  4>     # printlevel mini
|  5>     print[ P_Basis ] 0
|  6>     print[ P_SCFInfo ] 1
|  7>     print[ P_SCFIterInfo ] 1
|  8>     print[ P_OrbEn ] 0
|  9>     print[ P_Cartesian ] 0
| 10> end
| 11> *xyz 0 1
| 12>  C        0.9845230000    -0.0242140000    -0.0011430000
| 13>  C        2.1858090000    -0.0122880000    -0.0037160000
| 14>  C        3.5957110000    -0.0533850000    -0.0065530000
| 15>  N        4.3924130000     0.9895970000    -0.0117040000
| 16>  C        5.6701300000     0.5496800000    -0.0129310000
| 17>  N        5.9232090000    -0.7364610000    -0.0091790000
| 18>  S        4.4908770000    -1.5190080000    -0.0035480000
| 19>  H       -0.0804240000    -0.0187890000     0.0010860000
| 20>  H        6.4874500000     1.2607600000    -0.0170220000
| 21> *
| 22>
| 23>                          ****END OF INPUT****
 Total Charge           Charge          ....    0
 Multiplicity           Mult            ....    1
 Number of Electrons    NEL             ....   56
 Basis Dimension        Dim             ....  112

MULLIKEN ATOMIC CHARGES
-----------------------
   0 C :   -0.405500
   1 C :    0.472849
   2 C :   -0.202715
   3 N :   -0.097566
   4 C :    0.128264
   5 N :   -0.269598
   6 S :    0.316265
   7 H :    0.024357
   8 H :    0.033645
Sum of atomic charges:   -0.0000000

LOEWDIN ATOMIC CHARGES
----------------------
   0 C :   -0.009368
   1 C :   -0.038176
   2 C :   -0.179033
   3 N :   -0.089132
   4 C :   -0.014990
   5 N :   -0.262655
   6 S :    0.520722
   7 H :    0.044193
   8 H :    0.028439

  Mayer bond orders larger than 0.1
B(  0-C ,  1-C ) :   2.2681 B(  0-C ,  7-H ) :   1.0856 B(  1-C ,  2-C ) :   0.9907
B(  2-C ,  3-N ) :   1.6092 B(  2-C ,  5-N ) :   0.1562 B(  2-C ,  6-S ) :   1.1511
B(  3-N ,  4-C ) :   1.3597 B(  3-N ,  6-S ) :   0.1261 B(  4-C ,  5-N ) :   1.5872
B(  4-C ,  8-H ) :   0.9662 B(  5-N ,  6-S ) :   1.2080

FINAL SINGLE POINT ENERGY      -660.441837187620

DIPOLE MOMENT
-------------
                                X             Y             Z
Electronic contribution:      0.91948      -2.09933       0.00508
Nuclear contribution   :     -1.55942       1.85817      -0.00290
                        -----------------------------------------
Total Dipole Moment    :     -0.63995      -0.24115       0.00218
                        -----------------------------------------
Magnitude (a.u.)       :      0.68388
Magnitude (Debye)      :      1.73828

                             ****ORCA TERMINATED NORMALLY****
TOTAL RUN TIME: 0 days 0 hours 0 minutes 5 seconds 672 msec
