                         Program Version 3.0.3 - RELEASE   -
|  1> ! RI PBE def2-SVP def2-SVP/J NBO PAL2
|  2> % maxcore 2000
|  3> % output
|  4>     # printlevel mini
|  5>     print[ P_Basis ] 0
|  6>     print[ P_SCFInfo ] 1
|  7>     print[ P_SCFIterInfo ] 1
|  8>     print[ P_OrbEn ] 0
|  9>     print[ P_Cartesian ] 0
| 10> end
| 11> *xyz 0 1
| 12>  C        0.9867190000     0.2726300000    -0.0301060000
| 13>  C        2.4774720000    -0.0463950000    -0.0529260000
| 14>  C        2.8883120000    -0.7335960000    -1.3098230000
| 15>  N        2.7606270000    -0.2257070000    -2.5078740000
| 16>  C        3.2232150000    -1.1184760000    -3.4159220000
| 17>  N        3.6944440000    -2.2733610000    -3.0205340000
| 18>  S        3.5737350000    -2.2984360000    -1.3851670000
| 19>  H        0.7270190000     0.8127400000     0.8822210000
| 20>  H        0.3899130000    -0.6411550000    -0.0669920000
| 21>  H        0.7160560000     0.8891660000    -0.8879130000
| 22>  H        2.7514290000    -0.6621320000     0.8075050000
| 23>  H        3.0545610000     0.8806340000     0.0226890000
| 24>  H        3.2034880000    -0.8782010000    -4.4725780000
| 25> *
| 26>
| 27>                          ****END OF INPUT****
 Total Charge           Charge          ....    0
 Multiplicity           Mult            ....    1
 Number of Electrons    NEL             ....   60
 Basis Dimension        Dim             ....  132

MULLIKEN ATOMIC CHARGES
-----------------------
   0 C :   -0.032564
   1 C :    0.112062
   2 C :   -0.236986
   3 N :   -0.130090
   4 C :    0.115546
   5 N :   -0.284666
   6 S :    0.272704
   7 H :    0.029615
   8 H :    0.027983
   9 H :    0.049208
  10 H :    0.004995
  11 H :    0.044798
  12 H :    0.027395
Sum of atomic charges:   -0.0000000

LOEWDIN ATOMIC CHARGES
----------------------
   0 C :   -0.054961
   1 C :   -0.055880
   2 C :   -0.161109
   3 N :   -0.116915
   4 C :   -0.021237
   5 N :   -0.275317
   6 S :    0.486804
   7 H :    0.030838
   8 H :    0.030041
   9 H :    0.034575
  10 H :    0.030357
  11 H :    0.049010
  12 H :    0.023793

  Mayer bond orders larger than 0.1
B(  0-C ,  1-C ) :   1.1121 B(  0-C ,  7-H ) :   0.9611 B(  0-C ,  8-H ) :   0.9653
B(  0-C ,  9-H ) :   0.9675 B(  1-C ,  2-C ) :   1.0481 B(  1-C , 10-H ) :   0.9122
B(  1-C , 11-H ) :   0.9068 B(  2-C ,  3-N ) :   1.6208 B(  2-C ,  5-N ) :   0.1463
B(  2-C ,  6-S ) :   1.1866 B(  3-N ,  4-C ) :   1.3431 B(  3-N ,  6-S ) :   0.1205
B(  4-C ,  5-N ) :   1.6175 B(  4-C , 12-H ) :   0.9679 B(  5-N ,  6-S ) :   1.1939

FINAL SINGLE POINT ENERGY      -662.912017497756

DIPOLE MOMENT
-------------
                                X             Y             Z
Electronic contribution:      5.92792      -6.41780      -4.74722
Nuclear contribution   :     -6.16074       6.71104       5.53560
                        -----------------------------------------
Total Dipole Moment    :     -0.23282       0.29324       0.78837
                        -----------------------------------------
Magnitude (a.u.)       :      0.87277
Magnitude (Debye)      :      2.21840

                             ****ORCA TERMINATED NORMALLY****
TOTAL RUN TIME: 0 days 0 hours 0 minutes 6 seconds 483 msec
