                         Program Version 3.0.3 - RELEASE   -
|  1> ! RI PBE def2-SVP def2-SVP/J NBO PAL2
|  2> % maxcore 2000
|  3> % output
|  4>     # printlevel mini
|  5>     print[ P_Basis ] 0
|  6>     print[ P_SCFInfo ] 1
|  7>     print[ P_SCFIterInfo ] 1
|  8>     print[ P_OrbEn ] 0
|  9>     print[ P_Cartesian ] 0
| 10> end
| 11> *xyz 0 1
| 12>  C        2.2440370000    -1.0676500000     0.6991890000
| 13>  C        2.2982430000     0.0364480000    -0.0381140000
| 14>  C        2.9693310000     0.1120670000    -1.3285610000
| 15>  N        2.9793300000     1.2451830000    -2.0004490000
| 16>  S        3.8028350000     1.0036460000    -3.3912260000
| 17>  C        4.1078550000    -0.6304310000    -3.0158450000
| 18>  N        3.5992470000    -0.9735430000    -1.8730290000
| 19>  H        1.7328930000    -1.0764510000     1.6539500000
| 20>  H        2.7103440000    -1.9859840000     0.3622940000
| 21>  H        1.8350920000     0.9604180000     0.2896710000
| 22>  H        4.6621940000    -1.3034230000    -3.6577810000
| 23> *
| 24>
| 25>                          ****END OF INPUT****
 Total Charge           Charge          ....    0
 Multiplicity           Mult            ....    1
 Number of Electrons    NEL             ....   58
 Basis Dimension        Dim             ....  122

MULLIKEN ATOMIC CHARGES
-----------------------
   0 C :    0.011122
   1 C :    0.038463
   2 C :   -0.029826
   3 N :   -0.269620
   4 S :    0.266487
   5 C :   -0.029015
   6 N :   -0.103725
   7 H :    0.030283
   8 H :    0.039430
   9 H :   -0.003431
  10 H :    0.049834
Sum of atomic charges:   -0.0000000

LOEWDIN ATOMIC CHARGES
----------------------
   0 C :   -0.014797
   1 C :   -0.039555
   2 C :   -0.040703
   3 N :   -0.274099
   4 S :    0.496179
   5 C :   -0.153121
   6 N :   -0.097916
   7 H :    0.029895
   8 H :    0.031052
   9 H :    0.038005
  10 H :    0.025062

  Mayer bond orders larger than 0.1
B(  0-C ,  1-C ) :   1.9202 B(  0-C ,  7-H ) :   0.9316 B(  0-C ,  8-H ) :   0.9365
B(  1-C ,  2-C ) :   1.1051 B(  1-C ,  9-H ) :   0.9451 B(  2-C ,  3-N ) :   1.5926
B(  2-C ,  6-N ) :   1.3471 B(  3-N ,  4-S ) :   1.1969 B(  3-N ,  5-C ) :   0.1178
B(  4-S ,  5-C ) :   1.1916 B(  4-S ,  6-N ) :   0.1252 B(  5-C ,  6-N ) :   1.6502
B(  5-C , 10-H ) :   0.9528

FINAL SINGLE POINT ENERGY      -661.691572514252

DIPOLE MOMENT
-------------
                                X             Y             Z
Electronic contribution:      2.20628       3.44300      -6.08152
Nuclear contribution   :     -1.95328      -3.68659       5.75465
                        -----------------------------------------
Total Dipole Moment    :      0.25300      -0.24359      -0.32687
                        -----------------------------------------
Magnitude (a.u.)       :      0.47978
Magnitude (Debye)      :      1.21951

                             ****ORCA TERMINATED NORMALLY****
TOTAL RUN TIME: 0 days 0 hours 0 minutes 6 seconds 17 msec
