                         Program Version 3.0.3 - RELEASE   -
|  1> ! RI PBE def2-SVP def2-SVP/J NBO PAL2
|  2> % maxcore 2000
|  3> % output
|  4>     # printlevel mini
|  5>     print[ P_Basis ] 0
|  6>     print[ P_SCFInfo ] 1
|  7>     print[ P_SCFIterInfo ] 1
|  8>     print[ P_OrbEn ] 0
|  9>     print[ P_Cartesian ] 0
| 10> end
| 11> *xyz 0 1
| 12>  C        1.0431700000    -0.1108520000     0.0603370000
| 13>  C        2.2416810000    -0.0565040000     0.0608740000
| 14>  C        3.6631320000     0.0053410000     0.0615070000
| 15>  N        4.2834130000     1.1679350000     0.0632230000
| 16>  S        5.8868600000     0.8715110000     0.0634720000
| 17>  C        5.6610580000    -0.8160740000     0.0612430000
| 18>  N        4.4036270000    -1.1429450000     0.0603380000
| 19>  H       -0.0204260000    -0.1585260000     0.0598610000
| 20>  H        6.4702940000    -1.5349950000     0.0606460000
| 21> *
| 22>
| 23>                          ****END OF INPUT****
 Total Charge           Charge          ....    0
 Multiplicity           Mult            ....    1
 Number of Electrons    NEL             ....   56
 Basis Dimension        Dim             ....  112

MULLIKEN ATOMIC CHARGES
-----------------------
   0 C :   -0.446370
   1 C :    0.514001
   2 C :   -0.057298
   3 N :   -0.252364
   4 S :    0.281971
   5 C :   -0.017895
   6 N :   -0.091450
   7 H :    0.017002
   8 H :    0.052404
Sum of atomic charges:    0.0000000

LOEWDIN ATOMIC CHARGES
----------------------
   0 C :   -0.020306
   1 C :   -0.013524
   2 C :   -0.054667
   3 N :   -0.255778
   4 S :    0.512767
   5 C :   -0.152797
   6 N :   -0.084595
   7 H :    0.041075
   8 H :    0.027825

  Mayer bond orders larger than 0.1
B(  0-C ,  1-C ) :   2.2750 B(  0-C ,  7-H ) :   1.0899 B(  1-C ,  2-C ) :   0.9400
B(  1-C ,  7-H ) :  -0.1006 B(  2-C ,  3-N ) :   1.5931 B(  2-C ,  6-N ) :   1.3633
B(  3-N ,  4-S ) :   1.2020 B(  3-N ,  5-C ) :   0.1180 B(  4-S ,  5-C ) :   1.1911
B(  4-S ,  6-N ) :   0.1219 B(  5-C ,  6-N ) :   1.6380 B(  5-C ,  8-H ) :   0.9527

FINAL SINGLE POINT ENERGY      -660.437666212173

DIPOLE MOMENT
-------------
                                X             Y             Z
Electronic contribution:      2.50819       1.68755       0.00310
Nuclear contribution   :     -1.97466      -1.86425      -0.00314
                        -----------------------------------------
Total Dipole Moment    :      0.53353      -0.17671      -0.00003
                        -----------------------------------------
Magnitude (a.u.)       :      0.56204
Magnitude (Debye)      :      1.42858

                             ****ORCA TERMINATED NORMALLY****
TOTAL RUN TIME: 0 days 0 hours 0 minutes 5 seconds 361 msec
