                         Program Version 3.0.3 - RELEASE   -
|  1> ! RI PBE def2-SVP def2-SVP/J NBO PAL2
|  2> % maxcore 2000
|  3> % output
|  4>     # printlevel mini
|  5>     print[ P_Basis ] 0
|  6>     print[ P_SCFInfo ] 1
|  7>     print[ P_SCFIterInfo ] 1
|  8>     print[ P_OrbEn ] 0
|  9>     print[ P_Cartesian ] 0
| 10> end
| 11> *xyz 0 1
| 12>  C        1.0330230000     0.1176360000     0.0492430000
| 13>  C        2.5403110000    -0.1046330000     0.1004630000
| 14>  C        3.0357670000    -0.3159710000     1.4915590000
| 15>  N        3.5705720000    -1.4557840000     1.8617410000
| 16>  S        3.9852610000    -1.3331900000     3.4428770000
| 17>  C        3.4149400000     0.2653060000     3.5459560000
| 18>  N        2.9280250000     0.6849000000     2.4160050000
| 19>  H        0.7085030000     0.3041630000    -0.9763430000
| 20>  H        0.7479760000     0.9754600000     0.6606030000
| 21>  H        0.4958680000    -0.7581800000     0.4200560000
| 22>  H        3.0530030000     0.7699900000    -0.3120330000
| 23>  H        2.8273630000    -0.9702210000    -0.4979330000
| 24>  H        3.4557780000     0.8641240000     4.4470070000
| 25> *
| 26>
| 27>                          ****END OF INPUT****
 Total Charge           Charge          ....    0
 Multiplicity           Mult            ....    1
 Number of Electrons    NEL             ....   60
 Basis Dimension        Dim             ....  132

MULLIKEN ATOMIC CHARGES
-----------------------
   0 C :   -0.038065
   1 C :    0.110315
   2 C :   -0.097717
   3 N :   -0.264001
   4 S :    0.254012
   5 C :   -0.030287
   6 N :   -0.119305
   7 H :    0.025440
   8 H :    0.038206
   9 H :    0.027218
  10 H :    0.030591
  11 H :    0.016773
  12 H :    0.046820
Sum of atomic charges:    0.0000000

LOEWDIN ATOMIC CHARGES
----------------------
   0 C :   -0.057254
   1 C :   -0.043969
   2 C :   -0.033601
   3 N :   -0.278104
   4 S :    0.488238
   5 C :   -0.157910
   6 N :   -0.108718
   7 H :    0.029050
   8 H :    0.030163
   9 H :    0.028837
  10 H :    0.042285
  11 H :    0.037300
  12 H :    0.023683

  Mayer bond orders larger than 0.1
B(  0-C ,  1-C ) :   1.1168 B(  0-C ,  7-H ) :   0.9628 B(  0-C ,  8-H ) :   0.9665
B(  0-C ,  9-H ) :   0.9661 B(  1-C ,  2-C ) :   1.0581 B(  1-C , 10-H ) :   0.9099
B(  1-C , 11-H ) :   0.9118 B(  2-C ,  3-N ) :   1.6484 B(  2-C ,  6-N ) :   1.3292
B(  3-N ,  4-S ) :   1.1853 B(  3-N ,  5-C ) :   0.1258 B(  4-S ,  5-C ) :   1.2053
B(  4-S ,  6-N ) :   0.1329 B(  5-C ,  6-N ) :   1.6340 B(  5-C , 12-H ) :   0.9538

FINAL SINGLE POINT ENERGY      -662.911603298364

DIPOLE MOMENT
-------------
                                X             Y             Z
Electronic contribution:      6.71305      -3.55317       8.51190
Nuclear contribution   :     -6.71913       3.74133      -8.18346
                        -----------------------------------------
Total Dipole Moment    :     -0.00608       0.18816       0.32844
                        -----------------------------------------
Magnitude (a.u.)       :      0.37856
Magnitude (Debye)      :      0.96224

                             ****ORCA TERMINATED NORMALLY****
TOTAL RUN TIME: 0 days 0 hours 0 minutes 6 seconds 330 msec
