                         Program Version 3.0.3 - RELEASE   -
|  1> ! RI PBE def2-SVP def2-SVP/J NBO PAL2
|  2> % maxcore 2000
|  3> % output
|  4>     # printlevel mini
|  5>     print[ P_Basis ] 0
|  6>     print[ P_SCFInfo ] 1
|  7>     print[ P_SCFIterInfo ] 1
|  8>     print[ P_OrbEn ] 0
|  9>     print[ P_Cartesian ] 0
| 10> end
| 11> *xyz 0 1
| 12>  C        0.7985170000    -0.0488380000     0.2293650000
| 13>  C        2.1202030000    -0.1673680000     0.1499060000
| 14>  C        2.8700990000    -1.4049250000     0.2320440000
| 15>  N        4.1715080000    -1.4320470000     0.1441960000
| 16>  N        4.6915000000    -2.6689100000     0.2423530000
| 17>  C        3.7836690000    -3.5780690000     0.4043570000
| 18>  S        2.1821800000    -2.9755580000     0.4508610000
| 19>  H        0.3229440000     0.9209000000     0.1571660000
| 20>  H        0.1470810000    -0.9054150000     0.3680020000
| 21>  H        2.7504510000     0.7052690000     0.0110110000
| 22>  H        4.0111480000    -4.6304210000     0.5028390000
| 23> *
| 24>
| 25>                          ****END OF INPUT****
 Total Charge           Charge          ....    0
 Multiplicity           Mult            ....    1
 Number of Electrons    NEL             ....   58
 Basis Dimension        Dim             ....  122

MULLIKEN ATOMIC CHARGES
-----------------------
   0 C :   -0.029252
   1 C :    0.060464
   2 C :   -0.124947
   3 N :   -0.074148
   4 N :   -0.067651
   5 C :    0.002429
   6 S :    0.085797
   7 H :    0.042711
   8 H :    0.034090
   9 H :    0.017128
  10 H :    0.053379
Sum of atomic charges:   -0.0000000

LOEWDIN ATOMIC CHARGES
----------------------
   0 C :   -0.029634
   1 C :   -0.040519
   2 C :   -0.173266
   3 N :   -0.071467
   4 N :   -0.066188
   5 C :   -0.163531
   6 S :    0.409850
   7 H :    0.034697
   8 H :    0.023950
   9 H :    0.047644
  10 H :    0.028464

  Mayer bond orders larger than 0.1
B(  0-C ,  1-C ) :   1.8935 B(  0-C ,  7-H ) :   0.9400 B(  0-C ,  8-H ) :   0.9467
B(  1-C ,  2-C ) :   1.1236 B(  1-C ,  9-H ) :   0.9511 B(  2-C ,  3-N ) :   1.6412
B(  2-C ,  6-S ) :   1.0962 B(  3-N ,  4-N ) :   1.1917 B(  3-N ,  6-S ) :   0.1246
B(  4-N ,  5-C ) :   1.6718 B(  4-N ,  6-S ) :   0.1327 B(  5-C ,  6-S ) :   1.1465
B(  5-C , 10-H ) :   0.9595

FINAL SINGLE POINT ENERGY      -661.671475977679

DIPOLE MOMENT
-------------
                                X             Y             Z
Electronic contribution:      2.58584      -3.96306       0.25140
Nuclear contribution   :     -3.76542       3.69620      -0.13894
                        -----------------------------------------
Total Dipole Moment    :     -1.17958      -0.26686       0.11246
                        -----------------------------------------
Magnitude (a.u.)       :      1.21461
Magnitude (Debye)      :      3.08729

                             ****ORCA TERMINATED NORMALLY****
TOTAL RUN TIME: 0 days 0 hours 0 minutes 5 seconds 823 msec
