                         Program Version 3.0.3 - RELEASE   -
|  1> ! RI PBE def2-SVP def2-SVP/J NBO PAL2
|  2> % maxcore 2000
|  3> % output
|  4>     # printlevel mini
|  5>     print[ P_Basis ] 0
|  6>     print[ P_SCFInfo ] 1
|  7>     print[ P_SCFIterInfo ] 1
|  8>     print[ P_OrbEn ] 0
|  9>     print[ P_Cartesian ] 0
| 10> end
| 11> *xyz 0 1
| 12>  C        0.9725420000     0.0659660000    -0.0682970000
| 13>  C        2.1730440000     0.0342200000    -0.0680330000
| 14>  C        3.5816680000    -0.0385500000    -0.0677390000
| 15>  N        4.3777830000     0.9981470000    -0.0670310000
| 16>  N        5.6753750000     0.6581720000    -0.0668970000
| 17>  C        5.8626780000    -0.6255790000    -0.0675000000
| 18>  S        4.4240620000    -1.5462250000    -0.0683030000
| 19>  H       -0.0914790000     0.1092350000    -0.0685230000
| 20>  H        6.8446270000    -1.0781870000    -0.0674970000
| 21> *
| 22>
| 23>                          ****END OF INPUT****
 Total Charge           Charge          ....    0
 Multiplicity           Mult            ....    1
 Number of Electrons    NEL             ....   56
 Basis Dimension        Dim             ....  112

MULLIKEN ATOMIC CHARGES
-----------------------
   0 C :   -0.408983
   1 C :    0.471414
   2 C :   -0.168337
   3 N :   -0.043952
   4 N :   -0.069713
   5 C :    0.018476
   6 S :    0.124118
   7 H :    0.023643
   8 H :    0.053334
Sum of atomic charges:   -0.0000000

LOEWDIN ATOMIC CHARGES
----------------------
   0 C :   -0.009767
   1 C :   -0.035999
   2 C :   -0.187906
   3 N :   -0.054311
   4 N :   -0.061167
   5 C :   -0.163260
   6 S :    0.437927
   7 H :    0.043938
   8 H :    0.030544

  Mayer bond orders larger than 0.1
B(  0-C ,  1-C ) :   2.2676 B(  0-C ,  7-H ) :   1.0857 B(  1-C ,  2-C ) :   1.0222
B(  2-C ,  3-N ) :   1.6329 B(  2-C ,  6-S ) :   1.1101 B(  3-N ,  4-N ) :   1.2023
B(  3-N ,  6-S ) :   0.1293 B(  4-N ,  5-C ) :   1.6552 B(  4-N ,  6-S ) :   0.1326
B(  5-C ,  6-S ) :   1.1489 B(  5-C ,  8-H ) :   0.9589

FINAL SINGLE POINT ENERGY      -660.420692068140

DIPOLE MOMENT
-------------
                                X             Y             Z
Electronic contribution:      0.79111      -0.89539      -0.00028
Nuclear contribution   :     -1.17308      -0.27938      -0.00041
                        -----------------------------------------
Total Dipole Moment    :     -0.38197      -1.17478      -0.00069
                        -----------------------------------------
Magnitude (a.u.)       :      1.23531
Magnitude (Debye)      :      3.13992

                             ****ORCA TERMINATED NORMALLY****
TOTAL RUN TIME: 0 days 0 hours 0 minutes 5 seconds 516 msec
