                         Program Version 3.0.3 - RELEASE   -
|  1> ! RI PBE def2-SVP def2-SVP/J NBO PAL2
|  2> % maxcore 2000
|  3> % output
|  4>     # printlevel mini
|  5>     print[ P_Basis ] 0
|  6>     print[ P_SCFInfo ] 1
|  7>     print[ P_SCFIterInfo ] 1
|  8>     print[ P_OrbEn ] 0
|  9>     print[ P_Cartesian ] 0
| 10> end
| 11> *xyz 0 1
| 12>  C        0.9676300000     0.0576200000    -0.1938340000
| 13>  C        2.4783350000    -0.0976170000    -0.0532120000
| 14>  C        2.9252500000    -0.2602360000     1.3586030000
| 15>  N        3.3971000000    -1.3693360000     1.8396150000
| 16>  N        3.7209940000    -1.2983470000     3.1494170000
| 17>  C        3.4919370000    -0.1303780000     3.6541650000
| 18>  S        2.8459990000     0.9987230000     2.5398060000
| 19>  H        0.6914810000     0.1462360000    -1.2462300000
| 20>  H        0.6073010000     0.9494730000     0.3239280000
| 21>  H        0.4486300000    -0.8073200000     0.2234790000
| 22>  H        2.9843460000     0.7639500000    -0.4991570000
| 23>  H        2.8213310000    -0.9865680000    -0.5863870000
| 24>  H        3.6900650000     0.1171010000     4.6878170000
| 25> *
| 26>
| 27>                          ****END OF INPUT****
 Total Charge           Charge          ....    0
 Multiplicity           Mult            ....    1
 Number of Electrons    NEL             ....   60
 Basis Dimension        Dim             ....  132

MULLIKEN ATOMIC CHARGES
-----------------------
   0 C :   -0.038043
   1 C :    0.077585
   2 C :   -0.195424
   3 N :   -0.066494
   4 N :   -0.075795
   5 C :   -0.003283
   6 S :    0.076604
   7 H :    0.034175
   8 H :    0.026991
   9 H :    0.041354
  10 H :    0.033902
  11 H :    0.038647
  12 H :    0.049780
Sum of atomic charges:   -0.0000000

LOEWDIN ATOMIC CHARGES
----------------------
   0 C :   -0.058385
   1 C :   -0.055679
   2 C :   -0.165728
   3 N :   -0.081348
   4 N :   -0.069826
   5 C :   -0.170661
   6 S :    0.396928
   7 H :    0.032531
   8 H :    0.024626
   9 H :    0.033546
  10 H :    0.039871
  11 H :    0.047241
  12 H :    0.026884

  Mayer bond orders larger than 0.1
B(  0-C ,  1-C ) :   1.1070 B(  0-C ,  7-H ) :   0.9633 B(  0-C ,  8-H ) :   0.9678
B(  0-C ,  9-H ) :   0.9670 B(  1-C ,  2-C ) :   1.0591 B(  1-C , 10-H ) :   0.9150
B(  1-C , 11-H ) :   0.9137 B(  2-C ,  3-N ) :   1.7126 B(  2-C ,  6-S ) :   1.1177
B(  3-N ,  4-N ) :   1.1772 B(  3-N ,  6-S ) :   0.1248 B(  4-N ,  5-C ) :   1.6965
B(  4-N ,  6-S ) :   0.1388 B(  5-C ,  6-S ) :   1.1375 B(  5-C , 12-H ) :   0.9591

FINAL SINGLE POINT ENERGY      -662.891708271316

DIPOLE MOMENT
-------------
                                X             Y             Z
Electronic contribution:      4.78255       0.45988       7.42080
Nuclear contribution   :     -5.25938       0.63591      -7.71586
                        -----------------------------------------
Total Dipole Moment    :     -0.47683       1.09580      -0.29506
                        -----------------------------------------
Magnitude (a.u.)       :      1.23093
Magnitude (Debye)      :      3.12878

                             ****ORCA TERMINATED NORMALLY****
TOTAL RUN TIME: 0 days 0 hours 0 minutes 6 seconds 466 msec
