                         Program Version 3.0.3 - RELEASE   -
|  1> ! RI PBE def2-SVP def2-SVP/J NBO PAL2
|  2> % maxcore 2000
|  3> % output
|  4>     # printlevel mini
|  5>     print[ P_Basis ] 0
|  6>     print[ P_SCFInfo ] 1
|  7>     print[ P_SCFIterInfo ] 1
|  8>     print[ P_OrbEn ] 0
|  9>     print[ P_Cartesian ] 0
| 10> end
| 11> *xyz 0 1
| 12>  C        0.6731670000    -0.0358780000     0.0896400000
| 13>  C        2.1235480000     0.1077560000    -0.2121730000
| 14>  C        2.9570510000    -0.9202090000    -0.3581580000
| 15>  N        4.3226190000    -0.7980650000    -0.5736430000
| 16>  C        5.1959400000    -1.7694550000    -0.9365840000
| 17>  N        4.6606770000    -2.9754440000    -1.2474390000
| 18>  S        6.8311170000    -1.4890150000    -0.9592150000
| 19>  H        0.4162660000     0.4309990000     1.0459770000
| 20>  H        0.3773760000    -1.0858700000     0.1407410000
| 21>  H        0.0584600000     0.4523920000    -0.6731020000
| 22>  H        2.5159220000     1.1185490000    -0.3043070000
| 23>  H        2.5961980000    -1.9388090000    -0.2591290000
| 24>  H        4.7622680000     0.0932140000    -0.4057650000
| 25>  H        3.7167310000    -3.0363580000    -1.5922210000
| 26>  H        5.3184600000    -3.6421870000    -1.6121930000
| 27> *
| 28>
| 29>                          ****END OF INPUT****
 Total Charge           Charge          ....    0
 Multiplicity           Mult            ....    1
 Number of Electrons    NEL             ....   62
 Basis Dimension        Dim             ....  142

MULLIKEN ATOMIC CHARGES
-----------------------
   0 C :    0.030029
   1 C :   -0.131703
   2 C :    0.039907
   3 N :   -0.012004
   4 C :   -0.065410
   5 N :   -0.045846
   6 S :   -0.267714
   7 H :    0.037495
   8 H :    0.017801
   9 H :    0.038990
  10 H :    0.000580
  11 H :    0.001301
  12 H :    0.121535
  13 H :    0.111927
  14 H :    0.123112
Sum of atomic charges:    0.0000000

LOEWDIN ATOMIC CHARGES
----------------------
   0 C :   -0.059827
   1 C :   -0.076981
   2 C :   -0.018469
   3 N :    0.044677
   4 C :   -0.124866
   5 N :    0.006834
   6 S :   -0.149314
   7 H :    0.037514
   8 H :    0.030519
   9 H :    0.037252
  10 H :    0.024663
  11 H :    0.021448
  12 H :    0.084182
  13 H :    0.066149
  14 H :    0.076218

  Mayer bond orders larger than 0.1
B(  0-C ,  1-C ) :   1.0971 B(  0-C ,  7-H ) :   0.9464 B(  0-C ,  8-H ) :   0.9637
B(  0-C ,  9-H ) :   0.9480 B(  1-C ,  2-C ) :   1.8052 B(  1-C , 10-H ) :   0.9637
B(  2-C ,  3-N ) :   1.1052 B(  2-C , 11-H ) :   0.9391 B(  3-N ,  4-C ) :   1.1922
B(  3-N , 12-H ) :   0.9101 B(  4-C ,  5-N ) :   1.2560 B(  4-C ,  6-S ) :   1.5900
B(  5-N , 13-H ) :   0.9344 B(  5-N , 14-H ) :   0.9364

FINAL SINGLE POINT ENERGY      -664.111602558779

DIPOLE MOMENT
-------------
                                X             Y             Z
Electronic contribution:     11.83309      -2.10037      -1.72527
Nuclear contribution   :    -13.59109       1.88802       1.54459
                        -----------------------------------------
Total Dipole Moment    :     -1.75800      -0.21235      -0.18068
                        -----------------------------------------
Magnitude (a.u.)       :      1.77998
Magnitude (Debye)      :      4.52434

                             ****ORCA TERMINATED NORMALLY****
TOTAL RUN TIME: 0 days 0 hours 0 minutes 6 seconds 813 msec
