                         Program Version 3.0.3 - RELEASE   -
|  1> ! RI PBE def2-SVP def2-SVP/J NBO PAL2
|  2> % maxcore 2000
|  3> % output
|  4>     # printlevel mini
|  5>     print[ P_Basis ] 0
|  6>     print[ P_SCFInfo ] 1
|  7>     print[ P_SCFIterInfo ] 1
|  8>     print[ P_OrbEn ] 0
|  9>     print[ P_Cartesian ] 0
| 10> end
| 11> *xyz 0 1
| 12>  C        0.2898900000    -0.4844060000    -0.1496440000
| 13>  C        1.7774560000    -0.4128390000    -0.0075350000
| 14>  C        2.5829680000    -1.4073650000    -0.3922890000
| 15>  N        2.1969490000     0.7788920000     0.5872680000
| 16>  C        3.3610380000     1.4828880000     0.4808290000
| 17>  N        4.2725210000     1.0363490000    -0.4016170000
| 18>  S        3.6005310000     2.8411100000     1.4059630000
| 19>  H       -0.0800150000     0.3151550000    -0.7973800000
| 20>  H       -0.1938400000    -0.3641190000     0.8254380000
| 21>  H       -0.0158610000    -1.4449040000    -0.5605340000
| 22>  H        2.1543790000    -2.2802620000    -0.8646760000
| 23>  H        3.6477470000    -1.4125600000    -0.2055440000
| 24>  H        1.5297450000     1.2533040000     1.1756060000
| 25>  H        4.0128110000     0.3638610000    -1.1058890000
| 26>  H        5.0478700000     1.6508970000    -0.5744070000
| 27> *
| 28>
| 29>                          ****END OF INPUT****
 Total Charge           Charge          ....    0
 Multiplicity           Mult            ....    1
 Number of Electrons    NEL             ....   62
 Basis Dimension        Dim             ....  142

MULLIKEN ATOMIC CHARGES
-----------------------
   0 C :    0.039219
   1 C :   -0.098628
   2 C :   -0.080193
   3 N :   -0.011277
   4 C :   -0.072781
   5 N :   -0.021081
   6 S :   -0.267993
   7 H :    0.049634
   8 H :    0.043816
   9 H :    0.026165
  10 H :    0.014369
  11 H :    0.026807
  12 H :    0.116300
  13 H :    0.112270
  14 H :    0.123374
Sum of atomic charges:   -0.0000000

LOEWDIN ATOMIC CHARGES
----------------------
   0 C :   -0.056966
   1 C :    0.000315
   2 C :   -0.127026
   3 N :    0.032886
   4 C :   -0.117164
   5 N :    0.023807
   6 S :   -0.150944
   7 H :    0.041057
   8 H :    0.040872
   9 H :    0.039506
  10 H :    0.028441
  11 H :    0.022255
  12 H :    0.078843
  13 H :    0.066986
  14 H :    0.077132

  Mayer bond orders larger than 0.1
B(  0-C ,  1-C ) :   1.0813 B(  0-C ,  7-H ) :   0.9497 B(  0-C ,  8-H ) :   0.9455
B(  0-C ,  9-H ) :   0.9471 B(  1-C ,  2-C ) :   1.8722 B(  1-C ,  3-N ) :   1.0859
B(  2-C , 10-H ) :   0.9176 B(  2-C , 11-H ) :   0.9367 B(  3-N ,  4-C ) :   1.1661
B(  3-N , 12-H ) :   0.9009 B(  4-C ,  5-N ) :   1.2990 B(  4-C ,  6-S ) :   1.5890
B(  5-N , 13-H ) :   0.9222 B(  5-N , 14-H ) :   0.9354

FINAL SINGLE POINT ENERGY      -664.110901050478

DIPOLE MOMENT
-------------
                                X             Y             Z
Electronic contribution:      4.92470       7.48200       3.82426
Nuclear contribution   :     -5.48783      -8.62031      -4.89925
                        -----------------------------------------
Total Dipole Moment    :     -0.56313      -1.13831      -1.07500
                        -----------------------------------------
Magnitude (a.u.)       :      1.66388
Magnitude (Debye)      :      4.22923

                             ****ORCA TERMINATED NORMALLY****
TOTAL RUN TIME: 0 days 0 hours 0 minutes 6 seconds 996 msec
