                         Program Version 3.0.3 - RELEASE   -
|  1> ! RI PBE def2-SVP def2-SVP/J NBO PAL2
|  2> % maxcore 2000
|  3> % output
|  4>     # printlevel mini
|  5>     print[ P_Basis ] 0
|  6>     print[ P_SCFInfo ] 1
|  7>     print[ P_SCFIterInfo ] 1
|  8>     print[ P_OrbEn ] 0
|  9>     print[ P_Cartesian ] 0
| 10> end
| 11> *xyz 0 1
| 12>  C        1.1521800000     0.3702180000    -0.7776930000
| 13>  C        2.3436200000     0.5941590000     0.1368580000
| 14>  C        2.6607610000     2.0764230000     0.2984770000
| 15>  N        2.0754510000    -0.0512360000     1.4092220000
| 16>  C        2.9616120000    -0.3867800000     2.3671760000
| 17>  N        4.2721260000    -0.2329800000     2.0694490000
| 18>  S        2.4684490000    -0.9517410000     3.8551620000
| 19>  H        1.3299750000     0.8234870000    -1.7540350000
| 20>  H        0.2542180000     0.8324990000    -0.3564750000
| 21>  H        0.9580940000    -0.6945040000    -0.9192490000
| 22>  H        3.2053570000     0.0917880000    -0.3224150000
| 23>  H        1.7910090000     2.6065650000     0.6943120000
| 24>  H        2.9240240000     2.5211830000    -0.6643700000
| 25>  H        3.4915200000     2.2318760000     0.9888110000
| 26>  H        1.1167420000    -0.1350470000     1.7064310000
| 27>  H        4.5902640000    -0.0924960000     1.1262010000
| 28>  H        4.9182760000    -0.6114060000     2.7382290000
| 29> *
| 30>
| 31>                          ****END OF INPUT****
 Total Charge           Charge          ....    0
 Multiplicity           Mult            ....    1
 Number of Electrons    NEL             ....   64
 Basis Dimension        Dim             ....  152

MULLIKEN ATOMIC CHARGES
-----------------------
   0 C :   -0.001945
   1 C :   -0.082209
   2 C :    0.040520
   3 N :   -0.074790
   4 C :   -0.064643
   5 N :   -0.033367
   6 S :   -0.301352
   7 H :    0.029139
   8 H :    0.027439
   9 H :    0.038060
  10 H :    0.012410
  11 H :    0.025666
  12 H :    0.021172
  13 H :    0.026328
  14 H :    0.116064
  15 H :    0.099437
  16 H :    0.122071
Sum of atomic charges:   -0.0000000

LOEWDIN ATOMIC CHARGES
----------------------
   0 C :   -0.057353
   1 C :    0.003994
   2 C :   -0.067407
   3 N :    0.005827
   4 C :   -0.120234
   5 N :    0.008649
   6 S :   -0.184281
   7 H :    0.034588
   8 H :    0.029278
   9 H :    0.032205
  10 H :    0.018174
  11 H :    0.030670
  12 H :    0.029159
  13 H :    0.027302
  14 H :    0.073484
  15 H :    0.060702
  16 H :    0.075242

  Mayer bond orders larger than 0.1
B(  0-C ,  1-C ) :   1.0926 B(  0-C ,  7-H ) :   0.9582 B(  0-C ,  8-H ) :   0.9571
B(  0-C ,  9-H ) :   0.9623 B(  1-C ,  2-C ) :   1.0763 B(  1-C ,  3-N ) :   0.9789
B(  1-C , 10-H ) :   0.9083 B(  2-C , 11-H ) :   0.9529 B(  2-C , 12-H ) :   0.9552
B(  2-C , 13-H ) :   0.9526 B(  3-N ,  4-C ) :   1.2357 B(  3-N , 14-H ) :   0.9154
B(  4-C ,  5-N ) :   1.2638 B(  4-C ,  6-S ) :   1.5649 B(  5-N , 15-H ) :   0.9360
B(  5-N , 16-H ) :   0.9348

FINAL SINGLE POINT ENERGY      -665.324228050035

DIPOLE MOMENT
-------------
                                X             Y             Z
Electronic contribution:      1.41136      -6.08330      10.93223
Nuclear contribution   :     -0.92874       6.73414     -12.89199
                        -----------------------------------------
Total Dipole Moment    :      0.48263       0.65084      -1.95977
                        -----------------------------------------
Magnitude (a.u.)       :      2.12066
Magnitude (Debye)      :      5.39029

                             ****ORCA TERMINATED NORMALLY****
TOTAL RUN TIME: 0 days 0 hours 0 minutes 7 seconds 758 msec
