                         Program Version 3.0.3 - RELEASE   -
|  1> ! RI PBE def2-SVP def2-SVP/J NBO PAL2
|  2> % maxcore 2000
|  3> % output
|  4>     # printlevel mini
|  5>     print[ P_Basis ] 0
|  6>     print[ P_SCFInfo ] 1
|  7>     print[ P_SCFIterInfo ] 1
|  8>     print[ P_OrbEn ] 0
|  9>     print[ P_Cartesian ] 0
| 10> end
| 11> *xyz 0 1
| 12>  C        1.3163270000     0.8016970000     0.4520990000
| 13>  C        1.9646710000    -0.0675980000     1.5149950000
| 14>  C        2.1773760000    -1.5095320000     1.0612150000
| 15>  N        3.0653580000    -1.6577840000    -0.0687900000
| 16>  C        4.4106490000    -1.7283830000    -0.0422960000
| 17>  N        5.0010060000    -1.6589060000     1.1721780000
| 18>  S        5.3018840000    -1.9297010000    -1.4356030000
| 19>  H        1.9340290000     0.8514870000    -0.4474120000
| 20>  H        1.1730200000     1.8226950000     0.8105940000
| 21>  H        0.3355110000     0.4095940000     0.1672440000
| 22>  H        2.9245530000     0.3708460000     1.8094280000
| 23>  H        1.3436640000    -0.0862280000     2.4169990000
| 24>  H        2.5460430000    -2.1244550000     1.8892810000
| 25>  H        1.2154160000    -1.9429250000     0.7735960000
| 26>  H        2.6805050000    -1.7270160000    -0.9948640000
| 27>  H        4.5147250000    -1.3289540000     1.9871420000
| 28>  H        6.0043700000    -1.6327270000     1.1713940000
| 29> *
| 30>
| 31>                          ****END OF INPUT****
 Total Charge           Charge          ....    0
 Multiplicity           Mult            ....    1
 Number of Electrons    NEL             ....   64
 Basis Dimension        Dim             ....  152

MULLIKEN ATOMIC CHARGES
-----------------------
   0 C :   -0.038331
   1 C :   -0.035915
   2 C :    0.052337
   3 N :   -0.088026
   4 C :   -0.066417
   5 N :   -0.031792
   6 S :   -0.298815
   7 H :    0.037409
   8 H :    0.030755
   9 H :    0.017593
  10 H :    0.012713
  11 H :    0.023354
  12 H :    0.022567
  13 H :    0.023274
  14 H :    0.119281
  15 H :    0.099581
  16 H :    0.120432
Sum of atomic charges:   -0.0000000

LOEWDIN ATOMIC CHARGES
----------------------
   0 C :   -0.068576
   1 C :   -0.060395
   2 C :    0.013473
   3 N :    0.006421
   4 C :   -0.120449
   5 N :    0.011048
   6 S :   -0.183258
   7 H :    0.028928
   8 H :    0.031875
   9 H :    0.025655
  10 H :    0.020974
  11 H :    0.029812
  12 H :    0.022192
  13 H :    0.032647
  14 H :    0.073828
  15 H :    0.060859
  16 H :    0.074965

  Mayer bond orders larger than 0.1
B(  0-C ,  1-C ) :   1.1126 B(  0-C ,  7-H ) :   0.9672 B(  0-C ,  8-H ) :   0.9618
B(  0-C ,  9-H ) :   0.9660 B(  1-C ,  2-C ) :   1.0731 B(  1-C , 10-H ) :   0.9291
B(  1-C , 11-H ) :   0.9309 B(  2-C ,  3-N ) :   1.0322 B(  2-C , 12-H ) :   0.9321
B(  2-C , 13-H ) :   0.9352 B(  3-N ,  4-C ) :   1.2310 B(  3-N , 14-H ) :   0.9183
B(  4-C ,  5-N ) :   1.2672 B(  4-C ,  6-S ) :   1.5668 B(  5-N , 15-H ) :   0.9362
B(  5-N , 16-H ) :   0.9361

FINAL SINGLE POINT ENERGY      -665.321798591115

DIPOLE MOMENT
-------------
                                X             Y             Z
Electronic contribution:      9.54621      -5.89808      -6.20711
Nuclear contribution   :    -10.74022       6.37722       7.85382
                        -----------------------------------------
Total Dipole Moment    :     -1.19401       0.47913       1.64670
                        -----------------------------------------
Magnitude (a.u.)       :      2.08970
Magnitude (Debye)      :      5.31161

                             ****ORCA TERMINATED NORMALLY****
TOTAL RUN TIME: 0 days 0 hours 0 minutes 7 seconds 945 msec
