                         Program Version 3.0.3 - RELEASE   -
|  1> ! RI PBE def2-SVP def2-SVP/J NBO PAL2
|  2> % maxcore 2000
|  3> % output
|  4>     # printlevel mini
|  5>     print[ P_Basis ] 0
|  6>     print[ P_SCFInfo ] 1
|  7>     print[ P_SCFIterInfo ] 1
|  8>     print[ P_OrbEn ] 0
|  9>     print[ P_Cartesian ] 0
| 10> end
| 11> *xyz 0 1
| 12>  C        0.8030640000     0.1557810000    -0.0625410000
| 13>  C        2.2787850000     0.3092250000    -0.1279110000
| 14>  C        3.1126760000     0.0912100000     0.8798640000
| 15>  S        4.8309820000     0.4053030000     0.7048860000
| 16>  C        5.5667580000    -1.2027490000     0.8095200000
| 17>  O        5.0753240000     0.9131420000    -0.6183310000
| 18>  O        5.2561200000     1.1493660000     1.8593970000
| 19>  H        0.4608840000    -0.5583760000    -0.8176670000
| 20>  H        0.3147490000     1.1075590000    -0.2929630000
| 21>  H        0.4653530000    -0.1807750000     0.9181240000
| 22>  H        2.7100360000     0.6407740000    -1.0701370000
| 23>  H        2.8018200000    -0.2146770000     1.8736350000
| 24>  H        5.2279160000    -1.8108690000    -0.0275830000
| 25>  H        5.3073060000    -1.6580070000     1.7646440000
| 26>  H        6.6443260000    -1.0415270000     0.7538720000
| 27> *
| 28>
| 29>                          ****END OF INPUT****
 Total Charge           Charge          ....    0
 Multiplicity           Mult            ....    1
 Number of Electrons    NEL             ....   64
 Basis Dimension        Dim             ....  142

MULLIKEN ATOMIC CHARGES
-----------------------
   0 C :    0.037678
   1 C :   -0.040731
   2 C :   -0.116700
   3 S :    0.603122
   4 C :   -0.060654
   5 O :   -0.416402
   6 O :   -0.420693
   7 H :    0.049267
   8 H :    0.052918
   9 H :    0.030373
  10 H :    0.040235
  11 H :    0.029176
  12 H :    0.065437
  13 H :    0.060085
  14 H :    0.086888
Sum of atomic charges:   -0.0000000

LOEWDIN ATOMIC CHARGES
----------------------
   0 C :   -0.058756
   1 C :   -0.001172
   2 C :   -0.214408
   3 S :    1.098206
   4 C :   -0.186929
   5 O :   -0.477576
   6 O :   -0.476547
   7 H :    0.047166
   8 H :    0.049590
   9 H :    0.035054
  10 H :    0.035403
  11 H :    0.027661
  12 H :    0.038038
  13 H :    0.036921
  14 H :    0.047347

  Mayer bond orders larger than 0.1
B(  0-C ,  1-C ) :   1.0923 B(  0-C ,  7-H ) :   0.9431 B(  0-C ,  8-H ) :   0.9397
B(  0-C ,  9-H ) :   0.9631 B(  1-C ,  2-C ) :   1.8649 B(  1-C , 10-H ) :   0.9360
B(  2-C ,  3-S ) :   0.8635 B(  2-C , 11-H ) :   0.9367 B(  3-S ,  4-C ) :   0.8746
B(  3-S ,  5-O ) :   1.7264 B(  3-S ,  6-O ) :   1.7054 B(  4-C , 12-H ) :   0.9474
B(  4-C , 13-H ) :   0.9475 B(  4-C , 14-H ) :   0.9447

FINAL SINGLE POINT ENERGY      -704.896520451027

DIPOLE MOMENT
-------------
                                X             Y             Z
Electronic contribution:      6.74895       4.27925       0.99292
Nuclear contribution   :     -7.86441      -5.62121      -1.06366
                        -----------------------------------------
Total Dipole Moment    :     -1.11545      -1.34196      -0.07074
                        -----------------------------------------
Magnitude (a.u.)       :      1.74646
Magnitude (Debye)      :      4.43914

                             ****ORCA TERMINATED NORMALLY****
TOTAL RUN TIME: 0 days 0 hours 0 minutes 7 seconds 279 msec
