                         Program Version 3.0.3 - RELEASE   -
|  1> ! RI PBE def2-SVP def2-SVP/J NBO PAL2
|  2> % maxcore 2000
|  3> % output
|  4>     # printlevel mini
|  5>     print[ P_Basis ] 0
|  6>     print[ P_SCFInfo ] 1
|  7>     print[ P_SCFIterInfo ] 1
|  8>     print[ P_OrbEn ] 0
|  9>     print[ P_Cartesian ] 0
| 10> end
| 11> *xyz 0 1
| 12>  C        0.9889610000     0.1588700000    -0.0664560000
| 13>  C        2.4749380000     0.0801240000     0.0271540000
| 14>  C        3.2446010000     0.6787310000     0.9242800000
| 15>  S        3.2994410000    -0.8442560000    -1.2528190000
| 16>  C        2.9048900000    -2.5316970000    -0.8812760000
| 17>  O        2.6632200000    -0.5114120000    -2.4997200000
| 18>  O        4.7203890000    -0.6921570000    -1.1010370000
| 19>  H        0.5960240000     0.8028820000     0.7212210000
| 20>  H        0.5231340000    -0.8254250000     0.0373460000
| 21>  H        0.6887580000     0.5566860000    -1.0379300000
| 22>  H        2.8101840000     1.2958660000     1.7039100000
| 23>  H        4.3222790000     0.5779660000     0.8866520000
| 24>  H        1.8259950000    -2.6760750000    -0.9121840000
| 25>  H        3.3178000000    -2.7922390000     0.0919390000
| 26>  H        3.3804670000    -3.1209640000    -1.6665710000
| 27> *
| 28>
| 29>                          ****END OF INPUT****
 Total Charge           Charge          ....    0
 Multiplicity           Mult            ....    1
 Number of Electrons    NEL             ....   64
 Basis Dimension        Dim             ....  142

MULLIKEN ATOMIC CHARGES
-----------------------
   0 C :    0.091626
   1 C :   -0.270095
   2 C :    0.018109
   3 S :    0.603631
   4 C :   -0.040242
   5 O :   -0.414269
   6 O :   -0.410416
   7 H :    0.029294
   8 H :    0.035297
   9 H :    0.063019
  10 H :    0.032234
  11 H :    0.058795
  12 H :    0.059737
  13 H :    0.059869
  14 H :    0.083409
Sum of atomic charges:   -0.0000000

LOEWDIN ATOMIC CHARGES
----------------------
   0 C :   -0.067733
   1 C :   -0.188887
   2 C :   -0.032583
   3 S :    1.101179
   4 C :   -0.182973
   5 O :   -0.474981
   6 O :   -0.470128
   7 H :    0.040366
   8 H :    0.038037
   9 H :    0.048668
  10 H :    0.032484
  11 H :    0.034900
  12 H :    0.034840
  13 H :    0.038557
  14 H :    0.048253

  Mayer bond orders larger than 0.1
B(  0-C ,  1-C ) :   1.0531 B(  0-C ,  7-H ) :   0.9427 B(  0-C ,  8-H ) :   0.9420
B(  0-C ,  9-H ) :   0.9360 B(  1-C ,  2-C ) :   1.9819 B(  1-C ,  3-S ) :   0.8133
B(  2-C , 10-H ) :   0.9334 B(  2-C , 11-H ) :   0.9201 B(  3-S ,  4-C ) :   0.8721
B(  3-S ,  5-O ) :   1.7145 B(  3-S ,  6-O ) :   1.7306 B(  4-C , 12-H ) :   0.9445
B(  4-C , 13-H ) :   0.9468 B(  4-C , 14-H ) :   0.9439

FINAL SINGLE POINT ENERGY      -704.896745446379

DIPOLE MOMENT
-------------
                                X             Y             Z
Electronic contribution:      4.95585       0.80542      -4.70289
Nuclear contribution   :     -5.89985      -1.29892       5.93388
                        -----------------------------------------
Total Dipole Moment    :     -0.94400      -0.49350       1.23099
                        -----------------------------------------
Magnitude (a.u.)       :      1.62789
Magnitude (Debye)      :      4.13776

                             ****ORCA TERMINATED NORMALLY****
TOTAL RUN TIME: 0 days 0 hours 0 minutes 7 seconds 471 msec
