                         Program Version 3.0.3 - RELEASE   -
|  1> ! RI PBE def2-SVP def2-SVP/J NBO PAL2
|  2> % maxcore 2000
|  3> % output
|  4>     # printlevel mini
|  5>     print[ P_Basis ] 0
|  6>     print[ P_SCFInfo ] 1
|  7>     print[ P_SCFIterInfo ] 1
|  8>     print[ P_OrbEn ] 0
|  9>     print[ P_Cartesian ] 0
| 10> end
| 11> *xyz 0 1
| 12>  C        0.9762080000    -0.0879260000     0.1195030000
| 13>  C        2.4934160000    -0.0125990000     0.0316870000
| 14>  C        2.9699660000     0.7387430000    -1.1979990000
| 15>  S        3.0747020000     0.7590730000     1.5511840000
| 16>  C        4.8440440000     0.6725700000     1.4658690000
| 17>  O        2.7011760000     2.1494950000     1.5280050000
| 18>  O        2.6610100000    -0.0743890000     2.6495860000
| 19>  H        0.5916360000    -0.6097970000    -0.7592470000
| 20>  H        0.5432220000     0.9141080000     0.1401100000
| 21>  H        0.6554000000    -0.6245070000     1.0122420000
| 22>  H        2.9163130000    -1.0221280000     0.0644360000
| 23>  H        2.6299860000     1.7755130000    -1.1670110000
| 24>  H        2.5551000000     0.2688330000    -2.0927450000
| 25>  H        4.0567040000     0.7326510000    -1.2982770000
| 26>  H        5.2141290000     1.2940560000     0.6531160000
| 27>  H        5.1565850000    -0.3652430000     1.3569370000
| 28>  H        5.1903800000     1.0652570000     2.4224930000
| 29> *
| 30>
| 31>                          ****END OF INPUT****
 Total Charge           Charge          ....    0
 Multiplicity           Mult            ....    1
 Number of Electrons    NEL             ....   66
 Basis Dimension        Dim             ....  152

MULLIKEN ATOMIC CHARGES
-----------------------
   0 C :    0.025531
   1 C :   -0.221295
   2 C :    0.011806
   3 S :    0.567571
   4 C :   -0.034771
   5 O :   -0.418590
   6 O :   -0.417761
   7 H :    0.036543
   8 H :    0.042286
   9 H :    0.049536
  10 H :    0.042635
  11 H :    0.049979
  12 H :    0.031448
  13 H :    0.027352
  14 H :    0.067728
  15 H :    0.059534
  16 H :    0.080467
Sum of atomic charges:    0.0000000

LOEWDIN ATOMIC CHARGES
----------------------
   0 C :   -0.066839
   1 C :   -0.166749
   2 C :   -0.072933
   3 S :    1.099702
   4 C :   -0.183519
   5 O :   -0.481263
   6 O :   -0.481176
   7 H :    0.035088
   8 H :    0.034158
   9 H :    0.035173
  10 H :    0.028188
  11 H :    0.036071
  12 H :    0.036430
  13 H :    0.026141
  14 H :    0.036036
  15 H :    0.036925
  16 H :    0.048568

  Mayer bond orders larger than 0.1
B(  0-C ,  1-C ) :   1.0506 B(  0-C ,  7-H ) :   0.9630 B(  0-C ,  8-H ) :   0.9600
B(  0-C ,  9-H ) :   0.9538 B(  1-C ,  2-C ) :   1.0337 B(  1-C ,  3-S ) :   0.8176
B(  1-C , 10-H ) :   0.9018 B(  2-C , 11-H ) :   0.9581 B(  2-C , 12-H ) :   0.9503
B(  2-C , 13-H ) :   0.9599 B(  3-S ,  4-C ) :   0.8698 B(  3-S ,  5-O ) :   1.7043
B(  3-S ,  6-O ) :   1.7115 B(  4-C , 14-H ) :   0.9433 B(  4-C , 15-H ) :   0.9475
B(  4-C , 16-H ) :   0.9450

FINAL SINGLE POINT ENERGY      -706.122256053838

DIPOLE MOMENT
-------------
                                X             Y             Z
Electronic contribution:     -0.03962       2.05763       7.77904
Nuclear contribution   :      0.82657      -2.66707      -9.03512
                        -----------------------------------------
Total Dipole Moment    :      0.78695      -0.60943      -1.25608
                        -----------------------------------------
Magnitude (a.u.)       :      1.60264
Magnitude (Debye)      :      4.07357

                             ****ORCA TERMINATED NORMALLY****
TOTAL RUN TIME: 0 days 0 hours 0 minutes 7 seconds 795 msec
