                         Program Version 3.0.3 - RELEASE   -
|  1> ! RI PBE def2-SVP def2-SVP/J NBO PAL2
|  2> % maxcore 2000
|  3> % output
|  4>     # printlevel mini
|  5>     print[ P_Basis ] 0
|  6>     print[ P_SCFInfo ] 1
|  7>     print[ P_SCFIterInfo ] 1
|  8>     print[ P_OrbEn ] 0
|  9>     print[ P_Cartesian ] 0
| 10> end
| 11> *xyz 0 1
| 12>  C        0.9651090000     0.0345110000    -0.0386810000
| 13>  C        2.4098610000     0.0581630000    -0.0261290000
| 14>  C        3.6135040000     0.0834380000    -0.0230760000
| 15>  S        5.3221440000     0.1607220000    -0.0737760000
| 16>  C        5.7808040000    -0.8574140000     1.2930470000
| 17>  O        5.7579480000    -0.4766280000    -1.2796110000
| 18>  O        5.7125000000     1.5079500000     0.2139370000
| 19>  H        0.5633130000     1.0431140000     0.0821340000
| 20>  H        0.5844320000    -0.5857450000     0.7761760000
| 21>  H        0.5957380000    -0.3745460000    -0.9818420000
| 22>  H        5.4120780000    -1.8681010000     1.1258120000
| 23>  H        5.3791000000    -0.4281890000     2.2094610000
| 24>  H        6.8719680000    -0.8477850000     1.3134580000
| 25> *
| 26>
| 27>                          ****END OF INPUT****
 Total Charge           Charge          ....    0
 Multiplicity           Mult            ....    1
 Number of Electrons    NEL             ....   62
 Basis Dimension        Dim             ....  132

MULLIKEN ATOMIC CHARGES
-----------------------
   0 C :    0.047133
   1 C :   -0.308477
   2 C :    0.058608
   3 S :    0.599751
   4 C :   -0.038095
   5 O :   -0.389772
   6 O :   -0.390068
   7 H :    0.066456
   8 H :    0.064059
   9 H :    0.066896
  10 H :    0.071393
  11 H :    0.067440
  12 H :    0.084677
Sum of atomic charges:   -0.0000000

LOEWDIN ATOMIC CHARGES
----------------------
   0 C :   -0.063318
   1 C :   -0.002671
   2 C :   -0.261434
   3 S :    1.087790
   4 C :   -0.175583
   5 O :   -0.450342
   6 O :   -0.450104
   7 H :    0.061611
   8 H :    0.061268
   9 H :    0.061734
  10 H :    0.041753
  11 H :    0.041010
  12 H :    0.048285

  Mayer bond orders larger than 0.1
B(  0-C ,  1-C ) :   1.1341 B(  0-C ,  7-H ) :   0.9268 B(  0-C ,  8-H ) :   0.9273
B(  0-C ,  9-H ) :   0.9262 B(  1-C ,  2-C ) :   2.8649 B(  2-C ,  3-S ) :   0.7701
B(  3-S ,  4-C ) :   0.9237 B(  3-S ,  5-O ) :   1.7624 B(  3-S ,  6-O ) :   1.7611
B(  4-C , 10-H ) :   0.9450 B(  4-C , 11-H ) :   0.9450 B(  4-C , 12-H ) :   0.9428

FINAL SINGLE POINT ENERGY      -703.645087474687

DIPOLE MOMENT
-------------
                                X             Y             Z
Electronic contribution:      5.51627       2.54188      -3.20972
Nuclear contribution   :     -6.89211      -3.35618       4.24984
                        -----------------------------------------
Total Dipole Moment    :     -1.37585      -0.81430       1.04012
                        -----------------------------------------
Magnitude (a.u.)       :      1.90732
Magnitude (Debye)      :      4.84803

                             ****ORCA TERMINATED NORMALLY****
TOTAL RUN TIME: 0 days 0 hours 0 minutes 6 seconds 567 msec
