                         Program Version 3.0.3 - RELEASE   -
|  1> ! RI PBE def2-SVP def2-SVP/J NBO PAL2
|  2> % maxcore 2000
|  3> % output
|  4>     # printlevel mini
|  5>     print[ P_Basis ] 0
|  6>     print[ P_SCFInfo ] 1
|  7>     print[ P_SCFIterInfo ] 1
|  8>     print[ P_OrbEn ] 0
|  9>     print[ P_Cartesian ] 0
| 10> end
| 11> *xyz 0 1
| 12>  C        1.5717550000    -0.3521520000    -0.3855780000
| 13>  C        3.0500580000    -0.0330870000    -0.2344270000
| 14>  C        3.3135110000     0.8374790000     0.9837260000
| 15>  S        5.0536050000     1.1963760000     1.1367500000
| 16>  C        5.1460370000     2.2034140000     2.5920390000
| 17>  O        5.7457520000    -0.0354090000     1.4083040000
| 18>  O        5.4473110000     2.0061430000     0.0145130000
| 19>  H        1.3994660000    -0.9772480000    -1.2638910000
| 20>  H        0.9769690000     0.5575140000    -0.5040550000
| 21>  H        1.1884260000    -0.8907610000     0.4852030000
| 22>  H        3.4184090000     0.4829780000    -1.1246820000
| 23>  H        3.6285050000    -0.9557860000    -0.1418800000
| 24>  H        3.0109180000     0.3379290000     1.9081490000
| 25>  H        2.7975430000     1.7987400000     0.9103090000
| 26>  H        4.7884660000     1.6387470000     3.4519820000
| 27>  H        4.5712660000     3.1164730000     2.4431090000
| 28>  H        6.2027910000     2.4428500000     2.7150480000
| 29> *
| 30>
| 31>                          ****END OF INPUT****
 Total Charge           Charge          ....    0
 Multiplicity           Mult            ....    1
 Number of Electrons    NEL             ....   66
 Basis Dimension        Dim             ....  152

MULLIKEN ATOMIC CHARGES
-----------------------
   0 C :   -0.017517
   1 C :   -0.034239
   2 C :   -0.074204
   3 S :    0.556877
   4 C :   -0.030418
   5 O :   -0.425637
   6 O :   -0.424153
   7 H :    0.035022
   8 H :    0.023213
   9 H :    0.024030
  10 H :    0.039069
  11 H :    0.040613
  12 H :    0.042703
  13 H :    0.043479
  14 H :    0.059790
  15 H :    0.061435
  16 H :    0.079935
Sum of atomic charges:    0.0000000

LOEWDIN ATOMIC CHARGES
----------------------
   0 C :   -0.062563
   1 C :   -0.054777
   2 C :   -0.163376
   3 S :    1.098439
   4 C :   -0.183891
   5 O :   -0.483673
   6 O :   -0.483507
   7 H :    0.033448
   8 H :    0.026512
   9 H :    0.026278
  10 H :    0.032619
  11 H :    0.033335
  12 H :    0.029464
  13 H :    0.030110
  14 H :    0.036568
  15 H :    0.037182
  16 H :    0.047832

  Mayer bond orders larger than 0.1
B(  0-C ,  1-C ) :   1.1252 B(  0-C ,  7-H ) :   0.9638 B(  0-C ,  8-H ) :   0.9644
B(  0-C ,  9-H ) :   0.9666 B(  1-C ,  2-C ) :   1.0647 B(  1-C , 10-H ) :   0.9355
B(  1-C , 11-H ) :   0.9328 B(  2-C ,  3-S ) :   0.8452 B(  2-C , 12-H ) :   0.9191
B(  2-C , 13-H ) :   0.9156 B(  3-S ,  4-C ) :   0.8771 B(  3-S ,  5-O ) :   1.7087
B(  3-S ,  6-O ) :   1.7116 B(  4-C , 14-H ) :   0.9468 B(  4-C , 15-H ) :   0.9457
B(  4-C , 16-H ) :   0.9466

FINAL SINGLE POINT ENERGY      -706.119093066149

DIPOLE MOMENT
-------------
                                X             Y             Z
Electronic contribution:      9.43878       1.71735       0.48738
Nuclear contribution   :    -10.70911      -1.32135       0.35841
                        -----------------------------------------
Total Dipole Moment    :     -1.27033       0.39600       0.84579
                        -----------------------------------------
Magnitude (a.u.)       :      1.57668
Magnitude (Debye)      :      4.00760

                             ****ORCA TERMINATED NORMALLY****
TOTAL RUN TIME: 0 days 0 hours 0 minutes 7 seconds 592 msec
