                         Program Version 3.0.3 - RELEASE   -
|  1> ! RI PBE def2-SVP def2-SVP/J NBO PAL2
|  2> % maxcore 2000
|  3> % output
|  4>     # printlevel mini
|  5>     print[ P_Basis ] 0
|  6>     print[ P_SCFInfo ] 1
|  7>     print[ P_SCFIterInfo ] 1
|  8>     print[ P_OrbEn ] 0
|  9>     print[ P_Cartesian ] 0
| 10> end
| 11> *xyz 0 1
| 12>  C        0.9786680000    -0.1021540000     0.0965630000
| 13>  C        2.4623240000    -0.0413490000     0.0428670000
| 14>  C        3.2361660000     0.4456830000     1.0035250000
| 15>  S        4.9844370000     0.4224010000     0.8809560000
| 16>  N        5.4702340000     1.9852360000     0.8081580000
| 17>  O        5.4844470000    -0.0727080000     2.1258280000
| 18>  O        5.3363660000    -0.1641190000    -0.3743260000
| 19>  H        0.6388780000    -1.1385890000     0.0086320000
| 20>  H        0.5426450000     0.4395960000    -0.7483330000
| 21>  H        0.5823560000     0.3160990000     1.0225290000
| 22>  H        2.9512090000    -0.4365600000    -0.8445180000
| 23>  H        2.8570790000     0.8391540000     1.9416770000
| 24>  H        5.3577680000     2.4982710000     1.6702380000
| 25>  H        5.1768140000     2.4803280000    -0.0214180000
| 26> *
| 27>
| 28>                          ****END OF INPUT****
 Total Charge           Charge          ....    0
 Multiplicity           Mult            ....    1
 Number of Electrons    NEL             ....   64
 Basis Dimension        Dim             ....  137

MULLIKEN ATOMIC CHARGES
-----------------------
   0 C :    0.037573
   1 C :   -0.048963
   2 C :   -0.102586
   3 S :    0.680961
   4 N :   -0.214003
   5 O :   -0.401474
   6 O :   -0.395547
   7 H :    0.049576
   8 H :    0.045231
   9 H :    0.028609
  10 H :    0.036908
  11 H :    0.021878
  12 H :    0.130988
  13 H :    0.130850
Sum of atomic charges:    0.0000000

LOEWDIN ATOMIC CHARGES
----------------------
   0 C :   -0.058787
   1 C :   -0.012043
   2 C :   -0.222058
   3 S :    1.097602
   4 N :   -0.196870
   5 O :   -0.460834
   6 O :   -0.460867
   7 H :    0.047534
   8 H :    0.045143
   9 H :    0.034136
  10 H :    0.034530
  11 H :    0.025000
  12 H :    0.063674
  13 H :    0.063840

  Mayer bond orders larger than 0.1
B(  0-C ,  1-C ) :   1.0876 B(  0-C ,  7-H ) :   0.9419 B(  0-C ,  8-H ) :   0.9432
B(  0-C ,  9-H ) :   0.9635 B(  1-C ,  2-C ) :   1.8515 B(  1-C , 10-H ) :   0.9403
B(  2-C ,  3-S ) :   0.9002 B(  2-C , 11-H ) :   0.9342 B(  3-S ,  4-N ) :   0.9973
B(  3-S ,  5-O ) :   1.7607 B(  3-S ,  6-O ) :   1.7834 B(  4-N , 12-H ) :   0.9399
B(  4-N , 13-H ) :   0.9422

FINAL SINGLE POINT ENERGY      -720.919177329868

DIPOLE MOMENT
-------------
                                X             Y             Z
Electronic contribution:      8.96559      -0.90458       1.55708
Nuclear contribution   :    -10.52880       2.17632      -1.73102
                        -----------------------------------------
Total Dipole Moment    :     -1.56320       1.27174      -0.17394
                        -----------------------------------------
Magnitude (a.u.)       :      2.02267
Magnitude (Debye)      :      5.14122

                             ****ORCA TERMINATED NORMALLY****
TOTAL RUN TIME: 0 days 0 hours 0 minutes 6 seconds 254 msec
