                         Program Version 3.0.3 - RELEASE   -
|  1> ! RI PBE def2-SVP def2-SVP/J NBO PAL2
|  2> % maxcore 2000
|  3> % output
|  4>     # printlevel mini
|  5>     print[ P_Basis ] 0
|  6>     print[ P_SCFInfo ] 1
|  7>     print[ P_SCFIterInfo ] 1
|  8>     print[ P_OrbEn ] 0
|  9>     print[ P_Cartesian ] 0
| 10> end
| 11> *xyz 0 1
| 12>  C        1.1552150000     0.1812050000    -0.2295290000
| 13>  C        2.5783600000    -0.1330780000     0.0806110000
| 14>  C        3.2428870000     0.2000130000     1.1773030000
| 15>  S        3.4310360000    -1.1048620000    -1.1308280000
| 16>  N        3.4454790000    -0.1062940000    -2.4437160000
| 17>  O        4.7791340000    -1.3117840000    -0.6945320000
| 18>  O        2.5792280000    -2.2042000000    -1.4792300000
| 19>  H        1.0776780000     0.7498660000    -1.1595420000
| 20>  H        0.7159260000     0.7684720000     0.5774670000
| 21>  H        0.5775510000    -0.7369410000    -0.3564380000
| 22>  H        2.7561210000     0.7657300000     1.9644460000
| 23>  H        4.2769410000    -0.0892010000     1.3139880000
| 24>  H        4.3583320000     0.2970300000    -2.6050440000
| 25>  H        3.0671130000    -0.5725570000    -3.2571560000
| 26> *
| 27>
| 28>                          ****END OF INPUT****
 Total Charge           Charge          ....    0
 Multiplicity           Mult            ....    1
 Number of Electrons    NEL             ....   64
 Basis Dimension        Dim             ....  137

MULLIKEN ATOMIC CHARGES
-----------------------
   0 C :    0.088773
   1 C :   -0.239028
   2 C :    0.020809
   3 S :    0.681066
   4 N :   -0.219289
   5 O :   -0.398129
   6 O :   -0.405509
   7 H :    0.038938
   8 H :    0.026564
   9 H :    0.057940
  10 H :    0.029266
  11 H :    0.049156
  12 H :    0.133494
  13 H :    0.135947
Sum of atomic charges:    0.0000000

LOEWDIN ATOMIC CHARGES
----------------------
   0 C :   -0.069940
   1 C :   -0.180105
   2 C :   -0.039058
   3 S :    1.107461
   4 N :   -0.209987
   5 O :   -0.462469
   6 O :   -0.466446
   7 H :    0.039622
   8 H :    0.038693
   9 H :    0.046521
  10 H :    0.032067
  11 H :    0.032930
  12 H :    0.065163
  13 H :    0.065549

  Mayer bond orders larger than 0.1
B(  0-C ,  1-C ) :   1.0485 B(  0-C ,  7-H ) :   0.9375 B(  0-C ,  8-H ) :   0.9436
B(  0-C ,  9-H ) :   0.9376 B(  1-C ,  2-C ) :   1.9800 B(  1-C ,  3-S ) :   0.8486
B(  2-C , 10-H ) :   0.9300 B(  2-C , 11-H ) :   0.9191 B(  3-S ,  4-N ) :   1.0049
B(  3-S ,  5-O ) :   1.7702 B(  3-S ,  6-O ) :   1.7517 B(  4-N , 12-H ) :   0.9429
B(  4-N , 13-H ) :   0.9374

FINAL SINGLE POINT ENERGY      -720.922093292184

DIPOLE MOMENT
-------------
                                X             Y             Z
Electronic contribution:      4.29374      -4.73203      -2.23256
Nuclear contribution   :     -4.62313       5.91701       1.91618
                        -----------------------------------------
Total Dipole Moment    :     -0.32939       1.18498      -0.31638
                        -----------------------------------------
Magnitude (a.u.)       :      1.26995
Magnitude (Debye)      :      3.22796

                             ****ORCA TERMINATED NORMALLY****
TOTAL RUN TIME: 0 days 0 hours 0 minutes 6 seconds 441 msec
