                         Program Version 3.0.3 - RELEASE   -
|  1> ! RI PBE def2-SVP def2-SVP/J NBO PAL2
|  2> % maxcore 2000
|  3> % output
|  4>     # printlevel mini
|  5>     print[ P_Basis ] 0
|  6>     print[ P_SCFInfo ] 1
|  7>     print[ P_SCFIterInfo ] 1
|  8>     print[ P_OrbEn ] 0
|  9>     print[ P_Cartesian ] 0
| 10> end
| 11> *xyz 0 1
| 12>  C        1.0417010000     0.1033500000    -0.0645260000
| 13>  C        2.5563620000    -0.0336710000    -0.0704050000
| 14>  C        3.0239690000    -1.4203700000    -0.4689540000
| 15>  S        3.2257260000     1.2123070000    -1.1702400000
| 16>  N        4.8585780000     1.0568560000    -0.9699700000
| 17>  O        2.9171940000     0.8360640000    -2.5203520000
| 18>  O        2.8536540000     2.4976370000    -0.6528120000
| 19>  H        0.6199920000    -0.6054230000     0.6513380000
| 20>  H        0.6304960000    -0.1228210000    -1.0504310000
| 21>  H        0.7326950000     1.1091760000     0.2200170000
| 22>  H        2.9632180000     0.2431480000     0.9072080000
| 23>  H        2.6650700000    -1.6743190000    -1.4679610000
| 24>  H        2.6232680000    -2.1530150000     0.2353460000
| 25>  H        4.1118900000    -1.4965790000    -0.4554240000
| 26>  H        5.3099060000     0.7782960000    -1.8305170000
| 27>  H        5.2564600000     1.8980550000    -0.5749080000
| 28> *
| 29>
| 30>                          ****END OF INPUT****
 Total Charge           Charge          ....    0
 Multiplicity           Mult            ....    1
 Number of Electrons    NEL             ....   66
 Basis Dimension        Dim             ....  147

MULLIKEN ATOMIC CHARGES
-----------------------
   0 C :    0.032501
   1 C :   -0.196173
   2 C :    0.014482
   3 S :    0.637600
   4 N :   -0.208161
   5 O :   -0.406178
   6 O :   -0.405137
   7 H :    0.034287
   8 H :    0.038338
   9 H :    0.042803
  10 H :    0.041454
  11 H :    0.039500
  12 H :    0.032863
  13 H :    0.031338
  14 H :    0.135861
  15 H :    0.134624
Sum of atomic charges:    0.0000000

LOEWDIN ATOMIC CHARGES
----------------------
   0 C :   -0.068281
   1 C :   -0.161466
   2 C :   -0.074140
   3 S :    1.109061
   4 N :   -0.213587
   5 O :   -0.474006
   6 O :   -0.474711
   7 H :    0.034856
   8 H :    0.032891
   9 H :    0.033318
  10 H :    0.030612
  11 H :    0.032527
  12 H :    0.035107
  13 H :    0.027555
  14 H :    0.065168
  15 H :    0.065098

  Mayer bond orders larger than 0.1
B(  0-C ,  1-C ) :   1.0500 B(  0-C ,  7-H ) :   0.9605 B(  0-C ,  8-H ) :   0.9597
B(  0-C ,  9-H ) :   0.9541 B(  1-C ,  2-C ) :   1.0362 B(  1-C ,  3-S ) :   0.8428
B(  1-C , 10-H ) :   0.8979 B(  2-C , 11-H ) :   0.9586 B(  2-C , 12-H ) :   0.9527
B(  2-C , 13-H ) :   0.9566 B(  3-S ,  4-N ) :   1.0032 B(  3-S ,  5-O ) :   1.7441
B(  3-S ,  6-O ) :   1.7514 B(  4-N , 14-H ) :   0.9400 B(  4-N , 15-H ) :   0.9419

FINAL SINGLE POINT ENERGY      -722.147961605157

DIPOLE MOMENT
-------------
                                X             Y             Z
Electronic contribution:      2.62862       7.24470      -3.90034
Nuclear contribution   :     -1.88483      -7.96631       4.54325
                        -----------------------------------------
Total Dipole Moment    :      0.74379      -0.72162       0.64291
                        -----------------------------------------
Magnitude (a.u.)       :      1.21955
Magnitude (Debye)      :      3.09984

                             ****ORCA TERMINATED NORMALLY****
TOTAL RUN TIME: 0 days 0 hours 0 minutes 7 seconds 455 msec
