                         Program Version 3.0.3 - RELEASE   -
|  1> ! RI PBE def2-SVP def2-SVP/J NBO PAL2
|  2> % maxcore 2000
|  3> % output
|  4>     # printlevel mini
|  5>     print[ P_Basis ] 0
|  6>     print[ P_SCFInfo ] 1
|  7>     print[ P_SCFIterInfo ] 1
|  8>     print[ P_OrbEn ] 0
|  9>     print[ P_Cartesian ] 0
| 10> end
| 11> *xyz 0 1
| 12>  C        1.0693270000     0.0780700000    -0.0084910000
| 13>  C        2.5146090000     0.0992000000    -0.0261840000
| 14>  C        3.7184470000     0.1069720000    -0.0437580000
| 15>  S        5.4254670000     0.0707580000    -0.0824830000
| 16>  N        5.9047380000     1.5657000000     0.3466310000
| 17>  O        5.8510980000    -0.8069320000     0.9548320000
| 18>  O        5.8115930000    -0.1064210000    -1.4415420000
| 19>  H        0.7049330000    -0.6691540000     0.7002700000
| 20>  H        0.6767330000    -0.1664160000    -0.9982190000
| 21>  H        0.6714780000     1.0519780000     0.2863970000
| 22>  H        5.7067510000     1.8070470000     1.3072640000
| 23>  H        5.6798160000     2.2845990000    -0.3263150000
| 24> *
| 25>
| 26>                          ****END OF INPUT****
 Total Charge           Charge          ....    0
 Multiplicity           Mult            ....    1
 Number of Electrons    NEL             ....   62
 Basis Dimension        Dim             ....  127

MULLIKEN ATOMIC CHARGES
-----------------------
   0 C :    0.047340
   1 C :   -0.326382
   2 C :    0.058365
   3 S :    0.688943
   4 N :   -0.189360
   5 O :   -0.371120
   6 O :   -0.371390
   7 H :    0.067161
   8 H :    0.065510
   9 H :    0.058848
  10 H :    0.134987
  11 H :    0.137097
Sum of atomic charges:   -0.0000000

LOEWDIN ATOMIC CHARGES
----------------------
   0 C :   -0.064183
   1 C :   -0.015786
   2 C :   -0.272231
   3 S :    1.084203
   4 N :   -0.180311
   5 O :   -0.433954
   6 O :   -0.434325
   7 H :    0.061076
   8 H :    0.060797
   9 H :    0.058421
  10 H :    0.067819
  11 H :    0.068475

  Mayer bond orders larger than 0.1
B(  0-C ,  1-C ) :   1.1312 B(  0-C ,  7-H ) :   0.9276 B(  0-C ,  8-H ) :   0.9278
B(  0-C ,  9-H ) :   0.9281 B(  1-C ,  2-C ) :   2.8351 B(  2-C ,  3-S ) :   0.8269
B(  3-S ,  4-N ) :   1.0525 B(  3-S ,  5-O ) :   1.8147 B(  3-S ,  6-O ) :   1.8150
B(  4-N , 10-H ) :   0.9412 B(  4-N , 11-H ) :   0.9415

FINAL SINGLE POINT ENERGY      -719.668718944752

DIPOLE MOMENT
-------------
                                X             Y             Z
Electronic contribution:      7.19958      -1.96847      -0.69440
Nuclear contribution   :     -8.81000       3.35103       1.12501
                        -----------------------------------------
Total Dipole Moment    :     -1.61042       1.38256       0.43062
                        -----------------------------------------
Magnitude (a.u.)       :      2.16572
Magnitude (Debye)      :      5.50483

                             ****ORCA TERMINATED NORMALLY****
TOTAL RUN TIME: 0 days 0 hours 0 minutes 6 seconds 261 msec
