                         Program Version 3.0.3 - RELEASE   -
|  1> ! RI PBE def2-SVP def2-SVP/J NBO PAL2
|  2> % maxcore 2000
|  3> % output
|  4>     # printlevel mini
|  5>     print[ P_Basis ] 0
|  6>     print[ P_SCFInfo ] 1
|  7>     print[ P_SCFIterInfo ] 1
|  8>     print[ P_OrbEn ] 0
|  9>     print[ P_Cartesian ] 0
| 10> end
| 11> *xyz 0 1
| 12>  C        1.2185950000    -0.0589780000     0.2559870000
| 13>  C        2.7267800000     0.0293700000     0.0882270000
| 14>  C        3.1055640000     0.5051870000    -1.3039610000
| 15>  S        4.8666670000     0.6085220000    -1.5006460000
| 16>  N        5.0242350000     1.1348660000    -3.0572530000
| 17>  O        5.3511130000     1.6482230000    -0.6399980000
| 18>  O        5.4012600000    -0.7205470000    -1.4360980000
| 19>  H        0.9597870000    -0.4017000000     1.2596720000
| 20>  H        0.7785020000    -0.7601490000    -0.4581070000
| 21>  H        0.7430190000     0.9136840000     0.1042980000
| 22>  H        3.1836050000    -0.9474140000     0.2677180000
| 23>  H        3.1483460000     0.7163200000     0.8267270000
| 24>  H        2.7158320000     1.5039190000    -1.5155220000
| 25>  H        2.7514130000    -0.1772880000    -2.0804380000
| 26>  H        5.4615780000     2.0455270000    -3.0947500000
| 27>  H        5.4961040000     0.4491480000    -3.6309360000
| 28> *
| 29>
| 30>                          ****END OF INPUT****
 Total Charge           Charge          ....    0
 Multiplicity           Mult            ....    1
 Number of Electrons    NEL             ....   66
 Basis Dimension        Dim             ....  147

MULLIKEN ATOMIC CHARGES
-----------------------
   0 C :   -0.012162
   1 C :   -0.041274
   2 C :   -0.040141
   3 S :    0.635129
   4 N :   -0.217791
   5 O :   -0.413615
   6 O :   -0.414700
   7 H :    0.029305
   8 H :    0.023646
   9 H :    0.022328
  10 H :    0.035799
  11 H :    0.038257
  12 H :    0.042293
  13 H :    0.044241
  14 H :    0.133373
  15 H :    0.135312
Sum of atomic charges:   -0.0000000

LOEWDIN ATOMIC CHARGES
----------------------
   0 C :   -0.061381
   1 C :   -0.059445
   2 C :   -0.157513
   3 S :    1.107605
   4 N :   -0.216781
   5 O :   -0.476630
   6 O :   -0.477128
   7 H :    0.032196
   8 H :    0.026466
   9 H :    0.026199
  10 H :    0.031372
  11 H :    0.031810
  12 H :    0.031573
  13 H :    0.031921
  14 H :    0.064639
  15 H :    0.065097

  Mayer bond orders larger than 0.1
B(  0-C ,  1-C ) :   1.1191 B(  0-C ,  7-H ) :   0.9626 B(  0-C ,  8-H ) :   0.9668
B(  0-C ,  9-H ) :   0.9667 B(  1-C ,  2-C ) :   1.0590 B(  1-C , 10-H ) :   0.9340
B(  1-C , 11-H ) :   0.9347 B(  2-C ,  3-S ) :   0.8712 B(  2-C , 12-H ) :   0.9169
B(  2-C , 13-H ) :   0.9169 B(  3-S ,  4-N ) :   1.0049 B(  3-S ,  5-O ) :   1.7502
B(  3-S ,  6-O ) :   1.7499 B(  4-N , 14-H ) :   0.9427 B(  4-N , 15-H ) :   0.9430

FINAL SINGLE POINT ENERGY      -722.143911050080

DIPOLE MOMENT
-------------
                                X             Y             Z
Electronic contribution:     10.40034       1.20887      -2.94774
Nuclear contribution   :    -11.16435      -0.93225       2.07215
                        -----------------------------------------
Total Dipole Moment    :     -0.76401       0.27661      -0.87559
                        -----------------------------------------
Magnitude (a.u.)       :      1.19452
Magnitude (Debye)      :      3.03622

                             ****ORCA TERMINATED NORMALLY****
TOTAL RUN TIME: 0 days 0 hours 0 minutes 7 seconds 437 msec
