                         Program Version 3.0.3 - RELEASE   -
|  1> ! RI PBE def2-SVP def2-SVP/J NBO PAL2
|  2> % maxcore 2000
|  3> % output
|  4>     # printlevel mini
|  5>     print[ P_Basis ] 0
|  6>     print[ P_SCFInfo ] 1
|  7>     print[ P_SCFIterInfo ] 1
|  8>     print[ P_OrbEn ] 0
|  9>     print[ P_Cartesian ] 0
| 10> end
| 11> *xyz 0 1
| 12>  C        1.0170780000    -0.0262000000     0.0178880000
| 13>  C        2.4986280000    -0.1163060000     0.0303860000
| 14>  C        3.2516080000    -0.3311310000    -1.0395970000
| 15>  S        4.9891650000    -0.3598830000    -0.9250670000
| 16>  O        5.3110420000    -1.8827410000    -1.2872620000
| 17>  O        5.5364360000     0.4285850000    -1.9871790000
| 18>  O        5.3800640000    -0.1595590000     0.4282060000
| 19>  H        0.6946740000     0.9470180000     0.4001740000
| 20>  H        0.5872550000    -0.7794400000     0.6849830000
| 21>  H        0.6026200000    -0.1646200000    -0.9810510000
| 22>  H        3.0032140000     0.0067850000     0.9854570000
| 23>  H        2.8650510000    -0.4571390000    -2.0450270000
| 24>  H        5.7520730000    -1.8891600000    -2.1472020000
| 25> *
| 26>
| 27>                          ****END OF INPUT****
 Total Charge           Charge          ....    0
 Multiplicity           Mult            ....    1
 Number of Electrons    NEL             ....   64
 Basis Dimension        Dim             ....  132

MULLIKEN ATOMIC CHARGES
-----------------------
   0 C :    0.036149
   1 C :   -0.049871
   2 C :   -0.086385
   3 S :    0.768628
   4 O :   -0.290252
   5 O :   -0.404386
   6 O :   -0.373613
   7 H :    0.051588
   8 H :    0.053841
   9 H :    0.030741
  10 H :    0.044975
  11 H :    0.029857
  12 H :    0.188727
Sum of atomic charges:   -0.0000000

LOEWDIN ATOMIC CHARGES
----------------------
   0 C :   -0.057024
   1 C :    0.001194
   2 C :   -0.209511
   3 S :    1.107927
   4 O :   -0.220752
   5 O :   -0.462573
   6 O :   -0.437092
   7 H :    0.049152
   8 H :    0.049424
   9 H :    0.035483
  10 H :    0.037884
  11 H :    0.029666
  12 H :    0.076222

  Mayer bond orders larger than 0.1
B(  0-C ,  1-C ) :   1.0922 B(  0-C ,  7-H ) :   0.9410 B(  0-C ,  8-H ) :   0.9419
B(  0-C ,  9-H ) :   0.9639 B(  1-C ,  2-C ) :   1.8531 B(  1-C , 10-H ) :   0.9416
B(  2-C ,  3-S ) :   0.9089 B(  2-C , 11-H ) :   0.9351 B(  3-S ,  4-O ) :   0.9757
B(  3-S ,  5-O ) :   1.7449 B(  3-S ,  6-O ) :   1.8171 B(  4-O , 12-H ) :   0.9439

FINAL SINGLE POINT ENERGY      -740.764149926569

DIPOLE MOMENT
-------------
                                X             Y             Z
Electronic contribution:      9.69118      -0.39053      -1.66021
Nuclear contribution   :    -11.01026      -0.10745       1.24367
                        -----------------------------------------
Total Dipole Moment    :     -1.31908      -0.49798      -0.41655
                        -----------------------------------------
Magnitude (a.u.)       :      1.47019
Magnitude (Debye)      :      3.73693

                             ****ORCA TERMINATED NORMALLY****
TOTAL RUN TIME: 0 days 0 hours 0 minutes 5 seconds 983 msec
