                         Program Version 3.0.3 - RELEASE   -
|  1> ! RI PBE def2-SVP def2-SVP/J NBO PAL2
|  2> % maxcore 2000
|  3> % output
|  4>     # printlevel mini
|  5>     print[ P_Basis ] 0
|  6>     print[ P_SCFInfo ] 1
|  7>     print[ P_SCFIterInfo ] 1
|  8>     print[ P_OrbEn ] 0
|  9>     print[ P_Cartesian ] 0
| 10> end
| 11> *xyz 0 1
| 12>  C        0.9795030000    -0.0645750000     0.0344330000
| 13>  C        2.4547580000     0.1262130000    -0.0610700000
| 14>  C        3.1722820000     0.2615510000    -1.1670190000
| 15>  S        3.3079670000     0.2376630000     1.4829260000
| 16>  O        3.0857480000    -1.2259630000     2.0842850000
| 17>  O        4.7106060000     0.4000980000     1.2624290000
| 18>  O        2.5745350000     1.1114910000     2.3327410000
| 19>  H        0.7367310000    -0.9808400000     0.5781460000
| 20>  H        0.5448040000    -0.1228810000    -0.9638060000
| 21>  H        0.5206440000     0.7649620000     0.5763380000
| 22>  H        2.6923440000     0.2304640000    -2.1391590000
| 23>  H        4.2431060000     0.4151320000    -1.1269190000
| 24>  H        3.8517710000    -1.7661050000     1.8478760000
| 25> *
| 26>
| 27>                          ****END OF INPUT****
 Total Charge           Charge          ....    0
 Multiplicity           Mult            ....    1
 Number of Electrons    NEL             ....   64
 Basis Dimension        Dim             ....  132

MULLIKEN ATOMIC CHARGES
-----------------------
   0 C :    0.098385
   1 C :   -0.271709
   2 C :    0.018472
   3 S :    0.782892
   4 O :   -0.282244
   5 O :   -0.391350
   6 O :   -0.369505
   7 H :    0.046012
   8 H :    0.027702
   9 H :    0.063866
  10 H :    0.033264
  11 H :    0.054589
  12 H :    0.189625
Sum of atomic charges:   -0.0000000

LOEWDIN ATOMIC CHARGES
----------------------
   0 C :   -0.065872
   1 C :   -0.186196
   2 C :   -0.036877
   3 S :    1.108974
   4 O :   -0.215518
   5 O :   -0.453909
   6 O :   -0.431009
   7 H :    0.043538
   8 H :    0.039594
   9 H :    0.049889
  10 H :    0.034077
  11 H :    0.034426
  12 H :    0.078885

  Mayer bond orders larger than 0.1
B(  0-C ,  1-C ) :   1.0471 B(  0-C ,  7-H ) :   0.9401 B(  0-C ,  8-H ) :   0.9454
B(  0-C ,  9-H ) :   0.9376 B(  1-C ,  2-C ) :   1.9647 B(  1-C ,  3-S ) :   0.8667
B(  2-C , 10-H ) :   0.9321 B(  2-C , 11-H ) :   0.9241 B(  3-S ,  4-O ) :   0.9775
B(  3-S ,  5-O ) :   1.7721 B(  3-S ,  6-O ) :   1.8149 B(  4-O , 12-H ) :   0.9453

FINAL SINGLE POINT ENERGY      -740.765438345853

DIPOLE MOMENT
-------------
                                X             Y             Z
Electronic contribution:      4.61634       1.08390       5.68383
Nuclear contribution   :     -4.95404      -2.04643      -6.78720
                        -----------------------------------------
Total Dipole Moment    :     -0.33770      -0.96253      -1.10338
                        -----------------------------------------
Magnitude (a.u.)       :      1.50265
Magnitude (Debye)      :      3.81942

                             ****ORCA TERMINATED NORMALLY****
TOTAL RUN TIME: 0 days 0 hours 0 minutes 6 seconds 611 msec
