                         Program Version 3.0.3 - RELEASE   -
|  1> ! RI PBE def2-SVP def2-SVP/J NBO PAL2
|  2> % maxcore 2000
|  3> % output
|  4>     # printlevel mini
|  5>     print[ P_Basis ] 0
|  6>     print[ P_SCFInfo ] 1
|  7>     print[ P_SCFIterInfo ] 1
|  8>     print[ P_OrbEn ] 0
|  9>     print[ P_Cartesian ] 0
| 10> end
| 11> *xyz 0 1
| 12>  C        1.0622680000    -0.0269840000    -0.1057110000
| 13>  C        2.5811710000    -0.0777220000    -0.0292580000
| 14>  C        3.0906500000    -0.6030660000     1.2999520000
| 15>  S        3.1706230000    -1.0774420000    -1.3891210000
| 16>  O        4.7543330000    -0.8908940000    -1.2668650000
| 17>  O        2.8928270000    -2.4605310000    -1.1363190000
| 18>  O        2.7766020000    -0.4599270000    -2.6100850000
| 19>  H        0.6879680000     0.6355550000     0.6773010000
| 20>  H        0.6331870000    -1.0184530000     0.0531970000
| 21>  H        0.7232930000     0.3505120000    -1.0702650000
| 22>  H        3.0006020000     0.9104770000    -0.2418590000
| 23>  H        2.7417440000    -1.6229350000     1.4716500000
| 24>  H        2.7082980000     0.0282610000     2.1049200000
| 25>  H        4.1799620000    -0.5881120000     1.3528440000
| 26>  H        5.1261710000    -1.7312260000    -0.9683820000
| 27> *
| 28>
| 29>                          ****END OF INPUT****
 Total Charge           Charge          ....    0
 Multiplicity           Mult            ....    1
 Number of Electrons    NEL             ....   66
 Basis Dimension        Dim             ....  142

MULLIKEN ATOMIC CHARGES
-----------------------
   0 C :    0.023566
   1 C :   -0.219301
   2 C :    0.005792
   3 S :    0.749044
   4 O :   -0.280147
   5 O :   -0.402022
   6 O :   -0.371162
   7 H :    0.039012
   8 H :    0.041778
   9 H :    0.049620
  10 H :    0.060564
  11 H :    0.043887
  12 H :    0.037395
  13 H :    0.030005
  14 H :    0.191968
Sum of atomic charges:    0.0000000

LOEWDIN ATOMIC CHARGES
----------------------
   0 C :   -0.066869
   1 C :   -0.163503
   2 C :   -0.074514
   3 S :    1.112567
   4 O :   -0.219879
   5 O :   -0.467567
   6 O :   -0.440312
   7 H :    0.036855
   8 H :    0.033986
   9 H :    0.035736
  10 H :    0.037125
  11 H :    0.033726
  12 H :    0.038080
  13 H :    0.026986
  14 H :    0.077584

  Mayer bond orders larger than 0.1
B(  0-C ,  1-C ) :   1.0443 B(  0-C ,  7-H ) :   0.9598 B(  0-C ,  8-H ) :   0.9613
B(  0-C ,  9-H ) :   0.9554 B(  1-C ,  2-C ) :   1.0338 B(  1-C ,  3-S ) :   0.8552
B(  1-C , 10-H ) :   0.8977 B(  2-C , 11-H ) :   0.9585 B(  2-C , 12-H ) :   0.9525
B(  2-C , 13-H ) :   0.9594 B(  3-S ,  4-O ) :   0.9843 B(  3-S ,  5-O ) :   1.7445
B(  3-S ,  6-O ) :   1.8099 B(  4-O , 14-H ) :   0.9418

FINAL SINGLE POINT ENERGY      -741.991109023734

DIPOLE MOMENT
-------------
                                X             Y             Z
Electronic contribution:      4.01885      -3.26409      -8.30830
Nuclear contribution   :     -3.72927       3.61325       9.63905
                        -----------------------------------------
Total Dipole Moment    :      0.28957       0.34916       1.33076
                        -----------------------------------------
Magnitude (a.u.)       :      1.40594
Magnitude (Debye)      :      3.57362

                             ****ORCA TERMINATED NORMALLY****
TOTAL RUN TIME: 0 days 0 hours 0 minutes 7 seconds 370 msec
