                         Program Version 3.0.3 - RELEASE   -
|  1> ! RI PBE def2-SVP def2-SVP/J NBO PAL2
|  2> % maxcore 2000
|  3> % output
|  4>     # printlevel mini
|  5>     print[ P_Basis ] 0
|  6>     print[ P_SCFInfo ] 1
|  7>     print[ P_SCFIterInfo ] 1
|  8>     print[ P_OrbEn ] 0
|  9>     print[ P_Cartesian ] 0
| 10> end
| 11> *xyz 0 1
| 12>  C        0.9097610000     0.0288730000     0.0827520000
| 13>  C        2.3534280000     0.0516580000     0.0514250000
| 14>  C        3.5559700000     0.0674210000     0.0209620000
| 15>  S        5.2499890000     0.0144150000     0.0263880000
| 16>  O        5.6196280000     1.2986100000    -0.8255800000
| 17>  O        5.6995670000     0.2312590000     1.3608420000
| 18>  O        5.6691220000    -1.1005400000    -0.7402150000
| 19>  H        0.5381840000    -0.9591620000    -0.1985840000
| 20>  H        0.5005260000     0.7606690000    -0.6176370000
| 21>  H        0.5413820000     0.2650080000     1.0835850000
| 22>  H        5.7226530000     2.0471780000    -0.2219380000
| 23> *
| 24>
| 25>                          ****END OF INPUT****
 Total Charge           Charge          ....    0
 Multiplicity           Mult            ....    1
 Number of Electrons    NEL             ....   62
 Basis Dimension        Dim             ....  122

MULLIKEN ATOMIC CHARGES
-----------------------
   0 C :    0.047455
   1 C :   -0.317445
   2 C :    0.058934
   3 S :    0.802348
   4 O :   -0.266490
   5 O :   -0.371326
   6 O :   -0.348061
   7 H :    0.069144
   8 H :    0.067961
   9 H :    0.066648
  10 H :    0.190832
Sum of atomic charges:   -0.0000000

LOEWDIN ATOMIC CHARGES
----------------------
   0 C :   -0.062449
   1 C :    0.004508
   2 C :   -0.265719
   3 S :    1.090716
   4 O :   -0.196291
   5 O :   -0.433402
   6 O :   -0.407440
   7 H :    0.063615
   8 H :    0.062887
   9 H :    0.061523
  10 H :    0.082051

  Mayer bond orders larger than 0.1
B(  0-C ,  1-C ) :   1.1313 B(  0-C ,  7-H ) :   0.9255 B(  0-C ,  8-H ) :   0.9260
B(  0-C ,  9-H ) :   0.9283 B(  1-C ,  2-C ) :   2.8428 B(  2-C ,  3-S ) :   0.8603
B(  3-S ,  4-O ) :   1.0153 B(  3-S ,  5-O ) :   1.8032 B(  3-S ,  6-O ) :   1.8516
B(  4-O , 10-H ) :   0.9445

FINAL SINGLE POINT ENERGY      -739.511421359275

DIPOLE MOMENT
-------------
                                X             Y             Z
Electronic contribution:      8.09386      -0.63702      -0.01681
Nuclear contribution   :     -9.65557       1.63640       0.05526
                        -----------------------------------------
Total Dipole Moment    :     -1.56171       0.99938       0.03845
                        -----------------------------------------
Magnitude (a.u.)       :      1.85450
Magnitude (Debye)      :      4.71377

                             ****ORCA TERMINATED NORMALLY****
TOTAL RUN TIME: 0 days 0 hours 0 minutes 6 seconds 14 msec
