                         Program Version 3.0.3 - RELEASE   -
|  1> ! RI PBE def2-SVP def2-SVP/J NBO PAL2
|  2> % maxcore 2000
|  3> % output
|  4>     # printlevel mini
|  5>     print[ P_Basis ] 0
|  6>     print[ P_SCFInfo ] 1
|  7>     print[ P_SCFIterInfo ] 1
|  8>     print[ P_OrbEn ] 0
|  9>     print[ P_Cartesian ] 0
| 10> end
| 11> *xyz 0 1
| 12>  C        1.7025710000     0.5314370000    -0.3574280000
| 13>  C        3.1371310000     0.0444830000    -0.2345290000
| 14>  C        3.2141200000    -1.2603220000     0.5427110000
| 15>  S        4.8852930000    -1.8287400000     0.6852960000
| 16>  O        4.6919800000    -3.1325740000     1.5889370000
| 17>  O        5.3556080000    -2.2709690000    -0.5929870000
| 18>  O        5.6262360000    -0.8911900000     1.4584420000
| 19>  H        1.6593680000     1.4680370000    -0.9162450000
| 20>  H        1.2573200000     0.7094200000     0.6249160000
| 21>  H        1.0775430000    -0.1969320000    -0.8807020000
| 22>  H        3.7491360000     0.7955450000     0.2709810000
| 23>  H        3.5710270000    -0.1033440000    -1.2271190000
| 24>  H        2.6552320000    -2.0607090000     0.0519030000
| 25>  H        2.8450560000    -1.1481030000     1.5649870000
| 26>  H        4.8521790000    -3.9039610000     1.0293570000
| 27> *
| 28>
| 29>                          ****END OF INPUT****
 Total Charge           Charge          ....    0
 Multiplicity           Mult            ....    1
 Number of Electrons    NEL             ....   66
 Basis Dimension        Dim             ....  142

MULLIKEN ATOMIC CHARGES
-----------------------
   0 C :   -0.014586
   1 C :   -0.058320
   2 C :   -0.062492
   3 S :    0.740033
   4 O :   -0.283688
   5 O :   -0.408715
   6 O :   -0.378756
   7 H :    0.034857
   8 H :    0.025795
   9 H :    0.027623
  10 H :    0.045176
  11 H :    0.040510
  12 H :    0.043232
  13 H :    0.060266
  14 H :    0.189065
Sum of atomic charges:   -0.0000000

LOEWDIN ATOMIC CHARGES
----------------------
   0 C :   -0.062133
   1 C :   -0.058634
   2 C :   -0.159200
   3 S :    1.110378
   4 O :   -0.222789
   5 O :   -0.469919
   6 O :   -0.441892
   7 H :    0.034277
   8 H :    0.027998
   9 H :    0.027754
  10 H :    0.033971
  11 H :    0.032675
  12 H :    0.031998
  13 H :    0.038101
  14 H :    0.077416

  Mayer bond orders larger than 0.1
B(  0-C ,  1-C ) :   1.1237 B(  0-C ,  7-H ) :   0.9606 B(  0-C ,  8-H ) :   0.9648
B(  0-C ,  9-H ) :   0.9656 B(  1-C ,  2-C ) :   1.0580 B(  1-C , 10-H ) :   0.9362
B(  1-C , 11-H ) :   0.9353 B(  2-C ,  3-S ) :   0.8928 B(  2-C , 12-H ) :   0.9144
B(  2-C , 13-H ) :   0.9140 B(  3-S ,  4-O ) :   0.9822 B(  3-S ,  5-O ) :   1.7489
B(  3-S ,  6-O ) :   1.8073 B(  4-O , 14-H ) :   0.9449

FINAL SINGLE POINT ENERGY      -741.986970672210

DIPOLE MOMENT
-------------
                                X             Y             Z
Electronic contribution:     10.13012      -6.59965       3.04121
Nuclear contribution   :    -11.44332       6.21558      -3.20291
                        -----------------------------------------
Total Dipole Moment    :     -1.31321      -0.38407      -0.16170
                        -----------------------------------------
Magnitude (a.u.)       :      1.37774
Magnitude (Debye)      :      3.50194

                             ****ORCA TERMINATED NORMALLY****
TOTAL RUN TIME: 0 days 0 hours 0 minutes 7 seconds 212 msec
