                         Program Version 3.0.3 - RELEASE   -
|  1> ! RI PBE def2-SVP def2-SVP/J NBO PAL2
|  2> % maxcore 2000
|  3> % output
|  4>     # printlevel mini
|  5>     print[ P_Basis ] 0
|  6>     print[ P_SCFInfo ] 1
|  7>     print[ P_SCFIterInfo ] 1
|  8>     print[ P_OrbEn ] 0
|  9>     print[ P_Cartesian ] 0
| 10> end
| 11> *xyz 0 1
| 12>  C        3.4873480000     1.2095960000     0.0308690000
| 13>  C        3.5234440000    -0.2572890000    -0.3692610000
| 14>  N        3.3979210000    -1.1743930000     0.7499760000
| 15>  C        2.0541000000    -1.6162130000     1.0437430000
| 16>  C        4.4316980000    -1.4827150000     1.5650600000
| 17>  N        5.6378970000    -0.9470800000     1.2383940000
| 18>  S        4.3171100000    -2.4348660000     2.9344150000
| 19>  H        3.5547720000     1.8465590000    -0.8542210000
| 20>  H        4.3125930000     1.4597910000     0.6995490000
| 21>  H        2.5539550000     1.4451400000     0.5459490000
| 22>  H        4.4271210000    -0.4830980000    -0.9447940000
| 23>  H        2.6951380000    -0.4757000000    -1.0470740000
| 24>  H        1.4105910000    -0.7657500000     1.2928100000
| 25>  H        2.0873750000    -2.2950410000     1.8927220000
| 26>  H        1.6338390000    -2.1314990000     0.1752470000
| 27>  H        5.8304740000    -0.5841160000     0.3216280000
| 28>  H        6.4109230000    -1.3086270000     1.7678960000
| 29> *
| 30>
| 31>                          ****END OF INPUT****
 Total Charge           Charge          ....    0
 Multiplicity           Mult            ....    1
 Number of Electrons    NEL             ....   64
 Basis Dimension        Dim             ....  152

MULLIKEN ATOMIC CHARGES
-----------------------
   0 C :   -0.005241
   1 C :    0.022556
   2 N :   -0.227500
   3 C :    0.098117
   4 C :   -0.015472
   5 N :   -0.037380
   6 S :   -0.294253
   7 H :    0.030187
   8 H :    0.034671
   9 H :    0.031819
  10 H :    0.017967
  11 H :    0.025245
  12 H :    0.028412
  13 H :    0.051629
  14 H :    0.026100
  15 H :    0.095782
  16 H :    0.117360
Sum of atomic charges:   -0.0000000

LOEWDIN ATOMIC CHARGES
----------------------
   0 C :   -0.072851
   1 C :    0.020162
   2 N :   -0.025610
   3 C :    0.013260
   4 C :   -0.111517
   5 N :    0.003771
   6 S :   -0.164545
   7 H :    0.033068
   8 H :    0.028649
   9 H :    0.032059
  10 H :    0.018459
  11 H :    0.031726
  12 H :    0.020718
  13 H :    0.020878
  14 H :    0.021478
  15 H :    0.058764
  16 H :    0.071532

  Mayer bond orders larger than 0.1
B(  0-C ,  1-C ) :   1.1181 B(  0-C ,  7-H ) :   0.9554 B(  0-C ,  8-H ) :   0.9591
B(  0-C ,  9-H ) :   0.9571 B(  1-C ,  2-N ) :   1.0031 B(  1-C , 10-H ) :   0.9343
B(  1-C , 11-H ) :   0.9313 B(  2-N ,  3-C ) :   0.9902 B(  2-N ,  4-C ) :   1.2100
B(  3-C , 12-H ) :   0.9598 B(  3-C , 13-H ) :   0.9270 B(  3-C , 14-H ) :   0.9615
B(  4-C ,  5-N ) :   1.2533 B(  4-C ,  6-S ) :   1.5493 B(  5-N , 15-H ) :   0.9370
B(  5-N , 16-H ) :   0.9319 B(  6-S , 13-H ) :   0.1107

FINAL SINGLE POINT ENERGY      -665.312750405904

DIPOLE MOMENT
-------------
                                X             Y             Z
Electronic contribution:      4.00687      -6.74080       6.85788
Nuclear contribution   :     -3.93925       7.81378      -8.58943
                        -----------------------------------------
Total Dipole Moment    :      0.06762       1.07298      -1.73155
                        -----------------------------------------
Magnitude (a.u.)       :      2.03817
Magnitude (Debye)      :      5.18061

                             ****ORCA TERMINATED NORMALLY****
TOTAL RUN TIME: 0 days 0 hours 0 minutes 7 seconds 816 msec
