                         Program Version 3.0.3 - RELEASE   -
|  1> ! RI PBE def2-SVP def2-SVP/J NBO PAL2
|  2> % maxcore 2000
|  3> % output
|  4>     # printlevel mini
|  5>     print[ P_Basis ] 0
|  6>     print[ P_SCFInfo ] 1
|  7>     print[ P_SCFIterInfo ] 1
|  8>     print[ P_OrbEn ] 0
|  9>     print[ P_Cartesian ] 0
| 10> end
| 11> *xyz 0 1
| 12>  C        2.2930470000    -1.5932510000    -0.3996180000
| 13>  C        2.2508080000    -0.1188840000    -0.0223640000
| 14>  N        3.1542340000     0.7157230000    -0.7780590000
| 15>  C        4.4965460000     0.8217840000    -0.6233930000
| 16>  S        5.4150450000     1.6902600000    -1.7115560000
| 17>  N        5.0298170000     0.2036220000     0.4466620000
| 18>  C        6.4285470000     0.2833430000     0.7856180000
| 19>  H        1.5911650000    -2.1656210000     0.2118790000
| 20>  H        3.2912200000    -2.0129570000    -0.2588590000
| 21>  H        2.0217120000    -1.7281850000    -1.4483940000
| 22>  H        2.4413480000     0.0113950000     1.0498410000
| 23>  H        1.2450060000     0.2763260000    -0.1811250000
| 24>  H        2.8227830000     1.1496420000    -1.6226020000
| 25>  H        4.4178940000    -0.2540820000     1.0989560000
| 26>  H        6.7297570000     1.3123260000     0.9961010000
| 27>  H        7.0442560000    -0.0807800000    -0.0383140000
| 28>  H        6.6016930000    -0.3339600000     1.6679300000
| 29> *
| 30>
| 31>                          ****END OF INPUT****
 Total Charge           Charge          ....    0
 Multiplicity           Mult            ....    1
 Number of Electrons    NEL             ....   64
 Basis Dimension        Dim             ....  152

MULLIKEN ATOMIC CHARGES
-----------------------
   0 C :   -0.014323
   1 C :    0.012847
   2 N :   -0.091794
   3 C :   -0.026958
   4 S :   -0.306966
   5 N :   -0.132063
   6 C :    0.103266
   7 H :    0.029795
   8 H :    0.027115
   9 H :    0.033236
  10 H :    0.022876
  11 H :    0.028045
  12 H :    0.115679
  13 H :    0.101755
  14 H :    0.038990
  15 H :    0.044265
  16 H :    0.014234
Sum of atomic charges:   -0.0000000

LOEWDIN ATOMIC CHARGES
----------------------
   0 C :   -0.076806
   1 C :    0.008315
   2 N :   -0.003889
   3 C :   -0.119293
   4 S :   -0.172683
   5 N :   -0.000286
   6 C :    0.009689
   7 H :    0.031974
   8 H :    0.025576
   9 H :    0.031863
  10 H :    0.019287
  11 H :    0.034052
  12 H :    0.072472
  13 H :    0.063310
  14 H :    0.025500
  15 H :    0.028227
  16 H :    0.022692

  Mayer bond orders larger than 0.1
B(  0-C ,  1-C ) :   1.0996 B(  0-C ,  7-H ) :   0.9560 B(  0-C ,  8-H ) :   0.9619
B(  0-C ,  9-H ) :   0.9616 B(  1-C ,  2-N ) :   1.0281 B(  1-C , 10-H ) :   0.9333
B(  1-C , 11-H ) :   0.9399 B(  2-N ,  3-C ) :   1.2212 B(  2-N , 12-H ) :   0.9166
B(  3-C ,  4-S ) :   1.5450 B(  3-C ,  5-N ) :   1.2671 B(  5-N ,  6-C ) :   1.0192
B(  5-N , 13-H ) :   0.9201 B(  6-C , 14-H ) :   0.9611 B(  6-C , 15-H ) :   0.9579
B(  6-C , 16-H ) :   0.9615

FINAL SINGLE POINT ENERGY      -665.315194339899

DIPOLE MOMENT
-------------
                                X             Y             Z
Electronic contribution:      3.71636       6.93797      -5.00928
Nuclear contribution   :     -4.87198      -8.06328       6.27609
                        -----------------------------------------
Total Dipole Moment    :     -1.15562      -1.12531       1.26681
                        -----------------------------------------
Magnitude (a.u.)       :      2.05100
Magnitude (Debye)      :      5.21322

                             ****ORCA TERMINATED NORMALLY****
TOTAL RUN TIME: 0 days 0 hours 0 minutes 7 seconds 668 msec
