                         Program Version 3.0.3 - RELEASE   -
|  1> ! RI PBE def2-SVP def2-SVP/J NBO PAL2
|  2> % maxcore 2000
|  3> % output
|  4>     # printlevel mini
|  5>     print[ P_Basis ] 0
|  6>     print[ P_SCFInfo ] 1
|  7>     print[ P_SCFIterInfo ] 1
|  8>     print[ P_OrbEn ] 0
|  9>     print[ P_Cartesian ] 0
| 10> end
| 11> *xyz 0 1
| 12>  C        1.4491580000     0.2168570000    -0.7696960000
| 13>  C        2.9586490000     0.2458360000    -0.6621840000
| 14>  N        3.3952210000    -0.6287080000     0.4220510000
| 15>  S        4.9956990000    -0.7443100000     0.7816190000
| 16>  C        5.1909470000     0.4089580000     2.1041300000
| 17>  O        5.1870060000    -2.0643340000     1.3062880000
| 18>  O        5.7812820000    -0.2634210000    -0.3168830000
| 19>  H        1.1163490000     0.8795640000    -1.5705000000
| 20>  H        0.9807190000     0.5371820000     0.1629660000
| 21>  H        1.0897660000    -0.7891710000    -1.0038540000
| 22>  H        3.2984550000     1.2595780000    -0.4361270000
| 23>  H        3.4212930000    -0.0384710000    -1.6126460000
| 24>  H        2.9940980000    -1.5579390000     0.4102910000
| 25>  H        4.5797320000     0.0879730000     2.9450770000
| 26>  H        4.8977870000     1.4005640000     1.7610750000
| 27>  H        6.2482290000     0.4053200000     2.3692930000
| 28> *
| 29>
| 30>                          ****END OF INPUT****
 Total Charge           Charge          ....    0
 Multiplicity           Mult            ....    1
 Number of Electrons    NEL             ....   66
 Basis Dimension        Dim             ....  147

MULLIKEN ATOMIC CHARGES
-----------------------
   0 C :   -0.042042
   1 C :    0.083705
   2 N :   -0.341305
   3 S :    0.658093
   4 C :   -0.022894
   5 O :   -0.417651
   6 O :   -0.408486
   7 H :    0.035401
   8 H :    0.033875
   9 H :    0.027828
  10 H :    0.026655
  11 H :    0.035417
  12 H :    0.137120
  13 H :    0.061886
  14 H :    0.054909
  15 H :    0.077491
Sum of atomic charges:    0.0000000

LOEWDIN ATOMIC CHARGES
----------------------
   0 C :   -0.068194
   1 C :    0.004710
   2 N :   -0.230720
   3 S :    1.105432
   4 C :   -0.179393
   5 O :   -0.477606
   6 O :   -0.470639
   7 H :    0.036219
   8 H :    0.030099
   9 H :    0.027686
  10 H :    0.023833
  11 H :    0.017830
  12 H :    0.063108
  13 H :    0.037906
  14 H :    0.035864
  15 H :    0.043866

  Mayer bond orders larger than 0.1
B(  0-C ,  1-C ) :   1.1146 B(  0-C ,  7-H ) :   0.9610 B(  0-C ,  8-H ) :   0.9644
B(  0-C ,  9-H ) :   0.9661 B(  1-C ,  2-N ) :   0.9550 B(  1-C , 10-H ) :   0.9423
B(  1-C , 11-H ) :   0.9432 B(  2-N ,  3-S ) :   0.9775 B(  2-N , 12-H ) :   0.9172
B(  3-S ,  4-C ) :   0.9109 B(  3-S ,  5-O ) :   1.7544 B(  3-S ,  6-O ) :   1.7446
B(  4-C , 13-H ) :   0.9459 B(  4-C , 14-H ) :   0.9436 B(  4-C , 15-H ) :   0.9481

FINAL SINGLE POINT ENERGY      -722.135868216322

DIPOLE MOMENT
-------------
                                X             Y             Z
Electronic contribution:      8.12247      -5.11682       1.41225
Nuclear contribution   :     -9.28418       5.95993      -1.14086
                        -----------------------------------------
Total Dipole Moment    :     -1.16171       0.84311       0.27139
                        -----------------------------------------
Magnitude (a.u.)       :      1.46084
Magnitude (Debye)      :      3.71316

                             ****ORCA TERMINATED NORMALLY****
TOTAL RUN TIME: 0 days 0 hours 0 minutes 7 seconds 469 msec
