                         Program Version 3.0.3 - RELEASE   -
|  1> ! RI PBE def2-SVP def2-SVP/J NBO PAL2
|  2> % maxcore 2000
|  3> % output
|  4>     # printlevel mini
|  5>     print[ P_Basis ] 0
|  6>     print[ P_SCFInfo ] 1
|  7>     print[ P_SCFIterInfo ] 1
|  8>     print[ P_OrbEn ] 0
|  9>     print[ P_Cartesian ] 0
| 10> end
| 11> *xyz 0 1
| 12>  C        3.0053850000    -0.3424780000     1.2921210000
| 13>  C        2.8277700000    -0.8308790000    -0.1029980000
| 14>  O        2.4415600000    -1.9022240000    -0.4591390000
| 15>  S        3.2823380000     0.4363270000    -1.3753040000
| 16>  C        2.9773900000    -0.4020150000    -2.8982640000
| 17>  O        2.3484250000     1.5224610000    -1.2370320000
| 18>  O        4.6949530000     0.6762960000    -1.2411270000
| 19>  H        2.3923990000     0.5499520000     1.4420350000
| 20>  H        4.0466950000    -0.0449760000     1.4398060000
| 21>  H        2.7250610000    -1.1247140000     1.9951450000
| 22>  H        1.9251400000    -0.6723220000    -2.9584010000
| 23>  H        3.6152570000    -1.2812330000    -2.9614650000
| 24>  H        3.2360270000     0.3197050000    -3.6741760000
| 25> *
| 26>
| 27>                          ****END OF INPUT****
 Total Charge           Charge          ....    0
 Multiplicity           Mult            ....    1
 Number of Electrons    NEL             ....   64
 Basis Dimension        Dim             ....  132

MULLIKEN ATOMIC CHARGES
-----------------------
   0 C :    0.036267
   1 C :   -0.046477
   2 O :   -0.123385
   3 S :    0.539686
   4 C :   -0.034884
   5 O :   -0.409328
   6 O :   -0.408821
   7 H :    0.076609
   8 H :    0.075761
   9 H :    0.063409
  10 H :    0.073523
  11 H :    0.074415
  12 H :    0.083226
Sum of atomic charges:    0.0000000

LOEWDIN ATOMIC CHARGES
----------------------
   0 C :   -0.093663
   1 C :   -0.066250
   2 O :   -0.087128
   3 S :    1.044110
   4 C :   -0.180760
   5 O :   -0.465295
   6 O :   -0.465264
   7 H :    0.063176
   8 H :    0.062976
   9 H :    0.049427
  10 H :    0.044433
  11 H :    0.044664
  12 H :    0.049576

  Mayer bond orders larger than 0.1
B(  0-C ,  1-C ) :   1.0156 B(  0-C ,  7-H ) :   0.9259 B(  0-C ,  8-H ) :   0.9261
B(  0-C ,  9-H ) :   0.9509 B(  1-C ,  2-O ) :   2.1512 B(  1-C ,  3-S ) :   0.6785
B(  3-S ,  4-C ) :   0.8642 B(  3-S ,  5-O ) :   1.6983 B(  3-S ,  6-O ) :   1.6992
B(  4-C , 10-H ) :   0.9439 B(  4-C , 11-H ) :   0.9438 B(  4-C , 12-H ) :   0.9429

FINAL SINGLE POINT ENERGY      -740.783334121359

DIPOLE MOMENT
-------------
                                X             Y             Z
Electronic contribution:      0.51019       1.41168      -0.88505
Nuclear contribution   :     -0.72569      -2.00880       0.94883
                        -----------------------------------------
Total Dipole Moment    :     -0.21550      -0.59711       0.06378
                        -----------------------------------------
Magnitude (a.u.)       :      0.63801
Magnitude (Debye)      :      1.62168

                             ****ORCA TERMINATED NORMALLY****
TOTAL RUN TIME: 0 days 0 hours 0 minutes 6 seconds 273 msec
