                         Program Version 3.0.3 - RELEASE   -
|  1> ! RI PBE def2-SVP def2-SVP/J NBO PAL2
|  2> % maxcore 2000
|  3> % output
|  4>     # printlevel mini
|  5>     print[ P_Basis ] 0
|  6>     print[ P_SCFInfo ] 1
|  7>     print[ P_SCFIterInfo ] 1
|  8>     print[ P_OrbEn ] 0
|  9>     print[ P_Cartesian ] 0
| 10> end
| 11> *xyz 0 1
| 12>  C        1.0601680000    -0.0011730000     0.1466160000
| 13>  C        2.5658800000     0.0588620000     0.0163900000
| 14>  O        3.0251350000     0.1733160000    -1.2956770000
| 15>  S        3.1719930000     1.4887070000     0.9610400000
| 16>  C        4.9321690000     1.3195960000     0.9022360000
| 17>  O        2.8108070000     2.6504430000     0.1834530000
| 18>  O        2.7409950000     1.3695330000     2.3279280000
| 19>  H        0.6927400000    -0.8509390000    -0.4306240000
| 20>  H        0.6051940000     0.9128040000    -0.2424610000
| 21>  H        0.7629140000    -0.1188250000     1.1889500000
| 22>  H        3.0398790000    -0.8250210000     0.4511630000
| 23>  H        2.6796010000     1.0019140000    -1.6520780000
| 24>  H        5.2447390000     1.2283750000    -0.1365020000
| 25>  H        5.2294520000     0.4513630000     1.4885220000
| 26>  H        5.3334350000     2.2316550000     1.3448640000
| 27> *
| 28>
| 29>                          ****END OF INPUT****
 Total Charge           Charge          ....    0
 Multiplicity           Mult            ....    1
 Number of Electrons    NEL             ....   66
 Basis Dimension        Dim             ....  142

MULLIKEN ATOMIC CHARGES
-----------------------
   0 C :    0.028940
   1 C :   -0.009019
   2 O :   -0.252205
   3 S :    0.558708
   4 C :   -0.027551
   5 O :   -0.432782
   6 O :   -0.414355
   7 H :    0.050872
   8 H :    0.033664
   9 H :    0.048230
  10 H :    0.038512
  11 H :    0.166460
  12 H :    0.063296
  13 H :    0.063581
  14 H :    0.083651
Sum of atomic charges:   -0.0000000

LOEWDIN ATOMIC CHARGES
----------------------
   0 C :   -0.085814
   1 C :   -0.082093
   2 O :   -0.096847
   3 S :    1.075261
   4 C :   -0.180982
   5 O :   -0.487615
   6 O :   -0.476063
   7 H :    0.040747
   8 H :    0.032683
   9 H :    0.041709
  10 H :    0.024204
  11 H :    0.069624
  12 H :    0.038357
  13 H :    0.038715
  14 H :    0.048114

  Mayer bond orders larger than 0.1
B(  0-C ,  1-C ) :   1.0493 B(  0-C ,  7-H ) :   0.9583 B(  0-C ,  8-H ) :   0.9490
B(  0-C ,  9-H ) :   0.9438 B(  1-C ,  2-O ) :   1.0420 B(  1-C ,  3-S ) :   0.7762
B(  1-C , 10-H ) :   0.9045 B(  2-O , 11-H ) :   0.9614 B(  3-S ,  4-C ) :   0.8673
B(  3-S ,  5-O ) :   1.6722 B(  3-S ,  6-O ) :   1.7117 B(  4-C , 12-H ) :   0.9413
B(  4-C , 13-H ) :   0.9470 B(  4-C , 14-H ) :   0.9475

FINAL SINGLE POINT ENERGY      -741.983442256990

DIPOLE MOMENT
-------------
                                X             Y             Z
Electronic contribution:      0.44764       3.64187       1.58672
Nuclear contribution   :      0.02478      -4.40243      -2.06493
                        -----------------------------------------
Total Dipole Moment    :      0.47242      -0.76056      -0.47821
                        -----------------------------------------
Magnitude (a.u.)       :      1.01505
Magnitude (Debye)      :      2.58005

                             ****ORCA TERMINATED NORMALLY****
TOTAL RUN TIME: 0 days 0 hours 0 minutes 7 seconds 76 msec
