                         Program Version 3.0.3 - RELEASE   -
|  1> ! RI PBE def2-SVP def2-SVP/J NBO PAL2
|  2> % maxcore 2000
|  3> % output
|  4>     # printlevel mini
|  5>     print[ P_Basis ] 0
|  6>     print[ P_SCFInfo ] 1
|  7>     print[ P_SCFIterInfo ] 1
|  8>     print[ P_OrbEn ] 0
|  9>     print[ P_Cartesian ] 0
| 10> end
| 11> *xyz 0 1
| 12>  C        1.2338760000     0.2598190000    -0.1836740000
| 13>  C        2.7016550000     0.0623220000     0.0788020000
| 14>  O        3.2309750000    -0.7403380000    -0.9998350000
| 15>  S        4.7817350000    -1.0702230000    -0.9169920000
| 16>  C        4.8915600000    -2.0124710000    -2.3961990000
| 17>  O        5.5300320000     0.1401080000    -1.0574590000
| 18>  O        5.0257130000    -1.9127530000     0.2122320000
| 19>  H        0.8004940000     0.8648060000     0.6156400000
| 20>  H        0.7102900000    -0.6971440000    -0.2128130000
| 21>  H        1.0728560000     0.7762210000    -1.1313940000
| 22>  H        2.8768250000    -0.4649120000     1.0198850000
| 23>  H        3.2405050000     1.0128520000     0.0986220000
| 24>  H        4.6114390000    -1.3836650000    -3.2389400000
| 25>  H        4.2421250000    -2.8815250000    -2.3119620000
| 26>  H        5.9333090000    -2.3212060000    -2.4795040000
| 27> *
| 28>
| 29>                          ****END OF INPUT****
 Total Charge           Charge          ....    0
 Multiplicity           Mult            ....    1
 Number of Electrons    NEL             ....   66
 Basis Dimension        Dim             ....  142

MULLIKEN ATOMIC CHARGES
-----------------------
   0 C :   -0.038123
   1 C :    0.133414
   2 O :   -0.415518
   3 S :    0.751558
   4 C :   -0.048099
   5 O :   -0.405091
   6 O :   -0.404247
   7 H :    0.037782
   8 H :    0.040890
   9 H :    0.039722
  10 H :    0.037902
  11 H :    0.038880
  12 H :    0.073926
  13 H :    0.075317
  14 H :    0.081687
Sum of atomic charges:   -0.0000000

LOEWDIN ATOMIC CHARGES
----------------------
   0 C :   -0.071632
   1 C :    0.059647
   2 O :   -0.283040
   3 S :    1.110925
   4 C :   -0.173893
   5 O :   -0.462572
   6 O :   -0.462311
   7 H :    0.040075
   8 H :    0.034205
   9 H :    0.033981
  10 H :    0.019049
  11 H :    0.019229
  12 H :    0.043615
  13 H :    0.044116
  14 H :    0.048604

  Mayer bond orders larger than 0.1
B(  0-C ,  1-C ) :   1.1284 B(  0-C ,  7-H ) :   0.9555 B(  0-C ,  8-H ) :   0.9636
B(  0-C ,  9-H ) :   0.9638 B(  1-C ,  2-O ) :   0.8874 B(  1-C , 10-H ) :   0.9453
B(  1-C , 11-H ) :   0.9446 B(  2-O ,  3-S ) :   0.9787 B(  3-S ,  4-C ) :   0.9088
B(  3-S ,  5-O ) :   1.7695 B(  3-S ,  6-O ) :   1.7716 B(  4-C , 12-H ) :   0.9457
B(  4-C , 13-H ) :   0.9445 B(  4-C , 14-H ) :   0.9498

FINAL SINGLE POINT ENERGY      -741.976980435532

DIPOLE MOMENT
-------------
                                X             Y             Z
Electronic contribution:      7.45816      -1.44751       0.65058
Nuclear contribution   :     -8.40361       1.26911      -1.31352
                        -----------------------------------------
Total Dipole Moment    :     -0.94545      -0.17840      -0.66294
                        -----------------------------------------
Magnitude (a.u.)       :      1.16841
Magnitude (Debye)      :      2.96987

                             ****ORCA TERMINATED NORMALLY****
TOTAL RUN TIME: 0 days 0 hours 0 minutes 6 seconds 583 msec
