                         Program Version 3.0.3 - RELEASE   -
|  1> ! RI PBE def2-SVP def2-SVP/J NBO PAL2
|  2> % maxcore 2000
|  3> % output
|  4>     # printlevel mini
|  5>     print[ P_Basis ] 0
|  6>     print[ P_SCFInfo ] 1
|  7>     print[ P_SCFIterInfo ] 1
|  8>     print[ P_OrbEn ] 0
|  9>     print[ P_Cartesian ] 0
| 10> end
| 11> *xyz 0 1
| 12>  C        2.1459720000    -1.1506990000    -0.8550200000
| 13>  C        2.5920030000     0.0073620000    -0.3995260000
| 14>  S        3.3024320000     0.1216390000     1.2071550000
| 15>  O        2.7287350000     1.2716720000     1.8499130000
| 16>  O        3.2446500000    -1.1753310000     1.8230870000
| 17>  C        4.9937260000     0.4641500000     0.8587280000
| 18>  C        5.5163090000     1.6400230000     1.1616390000
| 19>  H        1.6638550000    -1.2246980000    -1.8232490000
| 20>  H        2.2415890000    -2.0491480000    -0.2553430000
| 21>  H        2.5203680000     0.9506590000    -0.9292870000
| 22>  H        5.5442790000    -0.3677090000     0.4338880000
| 23>  H        4.9000250000     2.4173200000     1.5997810000
| 24>  H        6.5675670000     1.8464510000     0.9954340000
| 25> *
| 26>
| 27>                          ****END OF INPUT****
 Total Charge           Charge          ....    0
 Multiplicity           Mult            ....    1
 Number of Electrons    NEL             ....   62
 Basis Dimension        Dim             ....  132

MULLIKEN ATOMIC CHARGES
-----------------------
   0 C :    0.025439
   1 C :   -0.112240
   2 S :    0.647258
   3 O :   -0.404340
   4 O :   -0.403987
   5 C :   -0.115463
   6 C :    0.028287
   7 H :    0.054131
   8 H :    0.066631
   9 H :    0.047266
  10 H :    0.046685
  11 H :    0.066500
  12 H :    0.053834
Sum of atomic charges:   -0.0000000

LOEWDIN ATOMIC CHARGES
----------------------
   0 C :   -0.009897
   1 C :   -0.187034
   2 S :    1.096110
   3 O :   -0.462371
   4 O :   -0.462255
   5 C :   -0.187655
   6 C :   -0.009657
   7 H :    0.039448
   8 H :    0.037930
   9 H :    0.033902
  10 H :    0.033970
  11 H :    0.038107
  12 H :    0.039403

  Mayer bond orders larger than 0.1
B(  0-C ,  1-C ) :   1.9467 B(  0-C ,  7-H ) :   0.9426 B(  0-C ,  8-H ) :   0.9364
B(  1-C ,  2-S ) :   0.8534 B(  1-C ,  9-H ) :   0.9375 B(  2-S ,  3-O ) :   1.7180
B(  2-S ,  4-O ) :   1.7189 B(  2-S ,  5-C ) :   0.8552 B(  5-C ,  6-C ) :   1.9500
B(  5-C , 10-H ) :   0.9356 B(  6-C , 11-H ) :   0.9346 B(  6-C , 12-H ) :   0.9430

FINAL SINGLE POINT ENERGY      -703.660792020850

DIPOLE MOMENT
-------------
                                X             Y             Z
Electronic contribution:     -1.83414      -0.42414       3.65103
Nuclear contribution   :      2.53061       0.58884      -5.04413
                        -----------------------------------------
Total Dipole Moment    :      0.69647       0.16469      -1.39309
                        -----------------------------------------
Magnitude (a.u.)       :      1.56618
Magnitude (Debye)      :      3.98091

                             ****ORCA TERMINATED NORMALLY****
TOTAL RUN TIME: 0 days 0 hours 0 minutes 6 seconds 605 msec
