                         Program Version 3.0.3 - RELEASE   -
|  1> ! RI PBE def2-SVP def2-SVP/J NBO PAL2
|  2> % maxcore 2000
|  3> % output
|  4>     # printlevel mini
|  5>     print[ P_Basis ] 0
|  6>     print[ P_SCFInfo ] 1
|  7>     print[ P_SCFIterInfo ] 1
|  8>     print[ P_OrbEn ] 0
|  9>     print[ P_Cartesian ] 0
| 10> end
| 11> *xyz 0 1
| 12>  C        2.2104280000     0.0156970000     1.3459750000
| 13>  C        2.7113240000     0.1438890000     0.1294570000
| 14>  S        3.3280890000    -1.2592540000    -0.7215430000
| 15>  O        3.1929460000    -2.4163120000     0.1079110000
| 16>  O        2.8067980000    -1.2381530000    -2.0528400000
| 17>  C        5.0027030000    -0.8864340000    -0.8244910000
| 18>  C        6.1735690000    -0.6356500000    -0.9132320000
| 19>  H        1.7736140000     0.8633680000     1.8613240000
| 20>  H        2.2184300000    -0.9455130000     1.8473460000
| 21>  H        2.7317390000     1.0626800000    -0.4453040000
| 22>  H        7.2144600000    -0.4202080000    -0.9937140000
| 23> *
| 24>
| 25>                          ****END OF INPUT****
 Total Charge           Charge          ....    0
 Multiplicity           Mult            ....    1
 Number of Electrons    NEL             ....   60
 Basis Dimension        Dim             ....  122

MULLIKEN ATOMIC CHARGES
-----------------------
   0 C :    0.036910
   1 C :   -0.107120
   2 S :    0.657818
   3 O :   -0.374785
   4 O :   -0.376651
   5 C :    0.417682
   6 C :   -0.468454
   7 H :    0.059458
   8 H :    0.072423
   9 H :    0.056064
  10 H :    0.026656
Sum of atomic charges:   -0.0000000

LOEWDIN ATOMIC CHARGES
----------------------
   0 C :   -0.000007
   1 C :   -0.178973
   2 S :    1.085966
   3 O :   -0.432468
   4 O :   -0.430220
   5 C :   -0.207832
   6 C :   -0.004781
   7 H :    0.042406
   8 H :    0.040762
   9 H :    0.038097
  10 H :    0.047051

  Mayer bond orders larger than 0.1
B(  0-C ,  1-C ) :   1.9429 B(  0-C ,  7-H ) :   0.9420 B(  0-C ,  8-H ) :   0.9344
B(  1-C ,  2-S ) :   0.9046 B(  1-C ,  9-H ) :   0.9359 B(  2-S ,  3-O ) :   1.7666
B(  2-S ,  4-O ) :   1.7523 B(  2-S ,  5-C ) :   0.7996 B(  5-C ,  6-C ) :   2.4018
B(  5-C , 10-H ) :  -0.1140 B(  6-C , 10-H ) :   1.1043

FINAL SINGLE POINT ENERGY      -702.399907696363

DIPOLE MOMENT
-------------
                                X             Y             Z
Electronic contribution:      0.76264      -2.95799      -3.13453
Nuclear contribution   :     -0.18483       4.21313       3.90263
                        -----------------------------------------
Total Dipole Moment    :      0.57781       1.25515       0.76810
                        -----------------------------------------
Magnitude (a.u.)       :      1.58090
Magnitude (Debye)      :      4.01832

                             ****ORCA TERMINATED NORMALLY****
TOTAL RUN TIME: 0 days 0 hours 0 minutes 6 seconds 132 msec
