                         Program Version 3.0.3 - RELEASE   -
|  1> ! RI PBE def2-SVP def2-SVP/J NBO PAL2
|  2> % maxcore 2000
|  3> % output
|  4>     # printlevel mini
|  5>     print[ P_Basis ] 0
|  6>     print[ P_SCFInfo ] 1
|  7>     print[ P_SCFIterInfo ] 1
|  8>     print[ P_OrbEn ] 0
|  9>     print[ P_Cartesian ] 0
| 10> end
| 11> *xyz 0 1
| 12>  C        1.1261890000    -0.4693170000     0.4225610000
| 13>  C        2.6165410000    -0.2236620000     0.2760180000
| 14>  S        3.0721380000    -0.1995280000    -1.4480480000
| 15>  O        2.8076130000    -1.5026900000    -1.9977110000
| 16>  O        2.4917580000     0.9714590000    -2.0494890000
| 17>  C        4.8228640000     0.0032730000    -1.4003860000
| 18>  C        5.3821280000     1.1076050000    -1.8628170000
| 19>  H        0.8595820000    -0.4843480000     1.4807440000
| 20>  H        0.8452420000    -1.4264310000    -0.0181130000
| 21>  H        0.5527500000     0.3193700000    -0.0659020000
| 22>  H        3.2085690000    -1.0147330000     0.7427360000
| 23>  H        2.9209350000     0.7410440000     0.6874090000
| 24>  H        5.3722390000    -0.8560120000    -1.0316490000
| 25>  H        4.7665670000     1.9171990000    -2.2394340000
| 26>  H        6.4598760000     1.2222600000    -1.8909170000
| 27> *
| 28>
| 29>                          ****END OF INPUT****
 Total Charge           Charge          ....    0
 Multiplicity           Mult            ....    1
 Number of Electrons    NEL             ....   64
 Basis Dimension        Dim             ....  142

MULLIKEN ATOMIC CHARGES
-----------------------
   0 C :   -0.016813
   1 C :   -0.093613
   2 S :    0.599454
   3 O :   -0.418170
   4 O :   -0.411408
   5 C :   -0.097810
   6 C :    0.026212
   7 H :    0.043836
   8 H :    0.048835
   9 H :    0.051760
  10 H :    0.049621
  11 H :    0.053739
  12 H :    0.047127
  13 H :    0.063901
  14 H :    0.053328
Sum of atomic charges:   -0.0000000

LOEWDIN ATOMIC CHARGES
----------------------
   0 C :   -0.073287
   1 C :   -0.164614
   2 S :    1.098822
   3 O :   -0.473222
   4 O :   -0.474224
   5 C :   -0.189654
   6 C :   -0.009800
   7 H :    0.037994
   8 H :    0.036214
   9 H :    0.036699
  10 H :    0.032335
  11 H :    0.033581
  12 H :    0.032606
  13 H :    0.037754
  14 H :    0.038797

  Mayer bond orders larger than 0.1
B(  0-C ,  1-C ) :   1.0876 B(  0-C ,  7-H ) :   0.9636 B(  0-C ,  8-H ) :   0.9603
B(  0-C ,  9-H ) :   0.9623 B(  1-C ,  2-S ) :   0.8451 B(  1-C , 10-H ) :   0.9213
B(  1-C , 11-H ) :   0.9240 B(  2-S ,  3-O ) :   1.6953 B(  2-S ,  4-O ) :   1.7221
B(  2-S ,  5-C ) :   0.8523 B(  5-C ,  6-C ) :   1.9692 B(  5-C , 12-H ) :   0.9348
B(  6-C , 13-H ) :   0.9335 B(  6-C , 14-H ) :   0.9437

FINAL SINGLE POINT ENERGY      -704.891281249287

DIPOLE MOMENT
-------------
                                X             Y             Z
Electronic contribution:      0.92769      -0.70392      -5.54632
Nuclear contribution   :     -0.05527       0.98100       6.80692
                        -----------------------------------------
Total Dipole Moment    :      0.87242       0.27708       1.26060
                        -----------------------------------------
Magnitude (a.u.)       :      1.55788
Magnitude (Debye)      :      3.95981

                             ****ORCA TERMINATED NORMALLY****
TOTAL RUN TIME: 0 days 0 hours 0 minutes 7 seconds 333 msec
