                         Program Version 3.0.3 - RELEASE   -
|  1> ! RI PBE def2-SVP def2-SVP/J NBO PAL2
|  2> % maxcore 2000
|  3> % output
|  4>     # printlevel mini
|  5>     print[ P_Basis ] 0
|  6>     print[ P_SCFInfo ] 1
|  7>     print[ P_SCFIterInfo ] 1
|  8>     print[ P_OrbEn ] 0
|  9>     print[ P_Cartesian ] 0
| 10> end
| 11> *xyz 0 1
| 12>  C        1.0102070000     0.1529630000     0.0411570000
| 13>  C        2.5129730000    -0.0132390000    -0.0233510000
| 14>  S        3.1006050000    -0.6234090000    -1.5825620000
| 15>  O        4.5286690000    -0.6966090000    -1.5335320000
| 16>  O        2.3240450000    -1.7639420000    -1.9642880000
| 17>  C        2.6870020000     0.6625340000    -2.6545690000
| 18>  C        2.4144680000     1.5459100000    -3.4204780000
| 19>  H        0.7217310000     0.4906370000     1.0381960000
| 20>  H        0.5069290000    -0.7917790000    -0.1647470000
| 21>  H        0.6623170000     0.8947820000    -0.6799110000
| 22>  H        2.8798040000    -0.7694210000     0.6784840000
| 23>  H        3.0610560000     0.9129890000     0.1621110000
| 24>  H        2.1774850000     2.3257860000    -4.1075990000
| 25> *
| 26>
| 27>                          ****END OF INPUT****
 Total Charge           Charge          ....    0
 Multiplicity           Mult            ....    1
 Number of Electrons    NEL             ....   62
 Basis Dimension        Dim             ....  132

MULLIKEN ATOMIC CHARGES
-----------------------
   0 C :   -0.024537
   1 C :   -0.086741
   2 S :    0.601974
   3 O :   -0.376978
   4 O :   -0.378167
   5 C :    0.428936
   6 C :   -0.473446
   7 H :    0.042118
   8 H :    0.056159
   9 H :    0.045113
  10 H :    0.076611
  11 H :    0.063539
  12 H :    0.025420
Sum of atomic charges:   -0.0000000

LOEWDIN ATOMIC CHARGES
----------------------
   0 C :   -0.075439
   1 C :   -0.157671
   2 S :    1.085929
   3 O :   -0.439129
   4 O :   -0.438693
   5 C :   -0.207306
   6 C :   -0.011575
   7 H :    0.040196
   8 H :    0.038284
   9 H :    0.034618
  10 H :    0.045078
  11 H :    0.039101
  12 H :    0.046608

  Mayer bond orders larger than 0.1
B(  0-C ,  1-C ) :   1.0621 B(  0-C ,  7-H ) :   0.9510 B(  0-C ,  8-H ) :   0.9612
B(  0-C ,  9-H ) :   0.9673 B(  1-C ,  2-S ) :   0.8924 B(  1-C , 10-H ) :   0.9167
B(  1-C , 11-H ) :   0.9230 B(  2-S ,  3-O ) :   1.7605 B(  2-S ,  4-O ) :   1.7513
B(  2-S ,  5-C ) :   0.7891 B(  5-C ,  6-C ) :   2.3970 B(  5-C , 12-H ) :  -0.1153
B(  6-C , 12-H ) :   1.1056

FINAL SINGLE POINT ENERGY      -703.632091151671

DIPOLE MOMENT
-------------
                                X             Y             Z
Electronic contribution:      5.15234      -2.88845      -5.28968
Nuclear contribution   :     -5.97517       4.19238       5.80890
                        -----------------------------------------
Total Dipole Moment    :     -0.82283       1.30393       0.51921
                        -----------------------------------------
Magnitude (a.u.)       :      1.62692
Magnitude (Debye)      :      4.13529

                             ****ORCA TERMINATED NORMALLY****
TOTAL RUN TIME: 0 days 0 hours 0 minutes 6 seconds 641 msec
