                         Program Version 3.0.3 - RELEASE   -
|  1> ! RI PBE def2-SVP def2-SVP/J NBO PAL2
|  2> % maxcore 2000
|  3> % output
|  4>     # printlevel mini
|  5>     print[ P_Basis ] 0
|  6>     print[ P_SCFInfo ] 1
|  7>     print[ P_SCFIterInfo ] 1
|  8>     print[ P_OrbEn ] 0
|  9>     print[ P_Cartesian ] 0
| 10> end
| 11> *xyz 0 1
| 12>  C        1.1354030000     0.2019900000     0.2050570000
| 13>  C        2.6309360000     0.0732190000    -0.0170100000
| 14>  S        3.1600690000    -1.5942780000     0.3352480000
| 15>  O        2.9591330000    -1.8412780000     1.7401480000
| 16>  O        2.5537260000    -2.4711420000    -0.6335390000
| 17>  C        4.9168000000    -1.5527490000     0.0241460000
| 18>  C        5.5231040000    -2.9194680000     0.2829680000
| 19>  H        0.8174800000     1.2230960000    -0.0119520000
| 20>  H        0.8763280000    -0.0282970000     1.2390410000
| 21>  H        0.5870650000    -0.4769840000    -0.4488630000
| 22>  H        3.1999310000     0.7294650000     0.6455150000
| 23>  H        2.9088250000     0.2781100000    -1.0534320000
| 24>  H        5.3342730000    -0.7893090000     0.6846180000
| 25>  H        5.0441590000    -1.2398300000    -1.0147200000
| 26>  H        5.3655520000    -3.2230650000     1.3184860000
| 27>  H        6.5969460000    -2.8882120000     0.0913610000
| 28>  H        5.0772700000    -3.6706700000    -0.3698720000
| 29> *
| 30>
| 31>                          ****END OF INPUT****
 Total Charge           Charge          ....    0
 Multiplicity           Mult            ....    1
 Number of Electrons    NEL             ....   66
 Basis Dimension        Dim             ....  152

MULLIKEN ATOMIC CHARGES
-----------------------
   0 C :   -0.013612
   1 C :   -0.072000
   2 S :    0.544300
   3 O :   -0.421361
   4 O :   -0.424074
   5 C :   -0.069146
   6 C :   -0.026737
   7 H :    0.039883
   8 H :    0.048420
   9 H :    0.051431
  10 H :    0.050136
  11 H :    0.046656
  12 H :    0.050313
  13 H :    0.045799
  14 H :    0.051110
  15 H :    0.046551
  16 H :    0.052330
Sum of atomic charges:   -0.0000000

LOEWDIN ATOMIC CHARGES
----------------------
   0 C :   -0.072307
   1 C :   -0.164660
   2 S :    1.099161
   3 O :   -0.483901
   4 O :   -0.484679
   5 C :   -0.164682
   6 C :   -0.074830
   7 H :    0.036916
   8 H :    0.036007
   9 H :    0.036714
  10 H :    0.031610
  11 H :    0.030748
  12 H :    0.031578
  13 H :    0.030579
  14 H :    0.036434
  15 H :    0.038212
  16 H :    0.037100

  Mayer bond orders larger than 0.1
B(  0-C ,  1-C ) :   1.0915 B(  0-C ,  7-H ) :   0.9628 B(  0-C ,  8-H ) :   0.9616
B(  0-C ,  9-H ) :   0.9617 B(  1-C ,  2-S ) :   0.8434 B(  1-C , 10-H ) :   0.9213
B(  1-C , 11-H ) :   0.9225 B(  2-S ,  3-O ) :   1.7024 B(  2-S ,  4-O ) :   1.6998
B(  2-S ,  5-C ) :   0.8441 B(  5-C ,  6-C ) :   1.0945 B(  5-C , 12-H ) :   0.9214
B(  5-C , 13-H ) :   0.9221 B(  6-C , 14-H ) :   0.9617 B(  6-C , 15-H ) :   0.9622
B(  6-C , 16-H ) :   0.9597

FINAL SINGLE POINT ENERGY      -706.122273701435

DIPOLE MOMENT
-------------
                                X             Y             Z
Electronic contribution:     -2.29776      -3.19474       1.23940
Nuclear contribution   :      3.15691       4.39496      -1.70514
                        -----------------------------------------
Total Dipole Moment    :      0.85915       1.20023      -0.46574
                        -----------------------------------------
Magnitude (a.u.)       :      1.54777
Magnitude (Debye)      :      3.93412

                             ****ORCA TERMINATED NORMALLY****
TOTAL RUN TIME: 0 days 0 hours 0 minutes 7 seconds 370 msec
