                         Program Version 3.0.3 - RELEASE   -
|  1> ! RI PBE def2-SVP def2-SVP/J NBO PAL2
|  2> % maxcore 2000
|  3> % output
|  4>     # printlevel mini
|  5>     print[ P_Basis ] 0
|  6>     print[ P_SCFInfo ] 1
|  7>     print[ P_SCFIterInfo ] 1
|  8>     print[ P_OrbEn ] 0
|  9>     print[ P_Cartesian ] 0
| 10> end
| 11> *xyz 0 1
| 12>  C        1.0947170000     0.1902080000     0.2228060000
| 13>  C        2.2604300000    -0.1870770000    -0.2749090000
| 14>  S        2.9990780000     0.7461310000    -1.5535550000
| 15>  O        2.1789640000     1.8618770000    -1.8902910000
| 16>  O        4.3935310000     0.8761480000    -1.2929290000
| 17>  C        2.8609320000    -0.3858290000    -2.8917320000
| 18>  N        2.7743450000    -1.1328670000    -3.7628860000
| 19>  H        0.6467800000    -0.3446130000     1.0523090000
| 20>  H        0.5686050000     1.0471520000    -0.1823640000
| 21>  H        2.8570260000    -1.0218290000     0.0744600000
| 22> *
| 23>
| 24>                          ****END OF INPUT****
 Total Charge           Charge          ....    0
 Multiplicity           Mult            ....    1
 Number of Electrons    NEL             ....   60
 Basis Dimension        Dim             ....  117

MULLIKEN ATOMIC CHARGES
-----------------------
   0 C :    0.052094
   1 C :   -0.109930
   2 S :    0.635523
   3 O :   -0.353673
   4 O :   -0.352609
   5 C :   -0.154793
   6 N :    0.061445
   7 H :    0.071819
   8 H :    0.080579
   9 H :    0.069544
Sum of atomic charges:    0.0000000

LOEWDIN ATOMIC CHARGES
----------------------
   0 C :    0.021656
   1 C :   -0.180681
   2 S :    1.071099
   3 O :   -0.409821
   4 O :   -0.405818
   5 C :   -0.225976
   6 N :   -0.007799
   7 H :    0.048524
   8 H :    0.044672
   9 H :    0.044145

  Mayer bond orders larger than 0.1
B(  0-C ,  1-C ) :   1.9259 B(  0-C ,  7-H ) :   0.9433 B(  0-C ,  8-H ) :   0.9370
B(  1-C ,  2-S ) :   0.9123 B(  1-C ,  9-H ) :   0.9347 B(  2-S ,  3-O ) :   1.7908
B(  2-S ,  4-O ) :   1.7796 B(  2-S ,  5-C ) :   0.7806 B(  5-C ,  6-N ) :   3.0397

FINAL SINGLE POINT ENERGY      -718.469412402768

DIPOLE MOMENT
-------------
                                X             Y             Z
Electronic contribution:      2.99627       0.99945      -3.95545
Nuclear contribution   :     -3.83454      -1.41736       5.38718
                        -----------------------------------------
Total Dipole Moment    :     -0.83828      -0.41791       1.43172
                        -----------------------------------------
Magnitude (a.u.)       :      1.71090
Magnitude (Debye)      :      4.34876

                             ****ORCA TERMINATED NORMALLY****
TOTAL RUN TIME: 0 days 0 hours 0 minutes 5 seconds 862 msec
