                         Program Version 3.0.3 - RELEASE   -
|  1> ! RI PBE def2-SVP def2-SVP/J NBO PAL2
|  2> % maxcore 2000
|  3> % output
|  4>     # printlevel mini
|  5>     print[ P_Basis ] 0
|  6>     print[ P_SCFInfo ] 1
|  7>     print[ P_SCFIterInfo ] 1
|  8>     print[ P_OrbEn ] 0
|  9>     print[ P_Cartesian ] 0
| 10> end
| 11> *xyz 0 1
| 12>  C        0.9211700000    -0.1073950000    -0.0035780000
| 13>  C        2.4254210000    -0.1142650000     0.1665560000
| 14>  S        2.9901150000    -1.2083240000     1.4380260000
| 15>  O        4.4153330000    -1.2297240000     1.4574810000
| 16>  O        2.2264490000    -1.0171960000     2.6273680000
| 17>  C        2.4805880000    -2.7617980000     0.7726460000
| 18>  N        2.1442010000    -3.7685090000     0.3286670000
| 19>  H        0.6505260000     0.6111620000    -0.7787710000
| 20>  H        0.4248070000     0.1782550000     0.9236520000
| 21>  H        0.5498410000    -1.0866920000    -0.3111980000
| 22>  H        2.8167500000     0.8528590000     0.5006180000
| 23>  H        2.9674870000    -0.4038920000    -0.7366550000
| 24> *
| 25>
| 26>                          ****END OF INPUT****
 Total Charge           Charge          ....    0
 Multiplicity           Mult            ....    1
 Number of Electrons    NEL             ....   62
 Basis Dimension        Dim             ....  127

MULLIKEN ATOMIC CHARGES
-----------------------
   0 C :   -0.034580
   1 C :   -0.094027
   2 S :    0.592299
   3 O :   -0.353388
   4 O :   -0.355356
   5 C :   -0.157673
   6 N :    0.060416
   7 H :    0.054017
   8 H :    0.062598
   9 H :    0.059911
  10 H :    0.087539
  11 H :    0.078246
Sum of atomic charges:    0.0000000

LOEWDIN ATOMIC CHARGES
----------------------
   0 C :   -0.073505
   1 C :   -0.153055
   2 S :    1.071043
   3 O :   -0.414792
   4 O :   -0.414431
   5 C :   -0.226911
   6 N :   -0.011125
   7 H :    0.045917
   8 H :    0.041022
   9 H :    0.039926
  10 H :    0.050299
  11 H :    0.045612

  Mayer bond orders larger than 0.1
B(  0-C ,  1-C ) :   1.0638 B(  0-C ,  7-H ) :   0.9499 B(  0-C ,  8-H ) :   0.9609
B(  0-C ,  9-H ) :   0.9639 B(  1-C ,  2-S ) :   0.8922 B(  1-C , 10-H ) :   0.9136
B(  1-C , 11-H ) :   0.9194 B(  2-S ,  3-O ) :   1.7877 B(  2-S ,  4-O ) :   1.7782
B(  2-S ,  5-C ) :   0.7712 B(  5-C ,  6-N ) :   3.0364

FINAL SINGLE POINT ENERGY      -719.702193365793

DIPOLE MOMENT
-------------
                                X             Y             Z
Electronic contribution:      4.73481      -5.27907       4.43525
Nuclear contribution   :     -5.23188       6.55567      -5.35962
                        -----------------------------------------
Total Dipole Moment    :     -0.49707       1.27660      -0.92438
                        -----------------------------------------
Magnitude (a.u.)       :      1.65265
Magnitude (Debye)      :      4.20071

                             ****ORCA TERMINATED NORMALLY****
TOTAL RUN TIME: 0 days 0 hours 0 minutes 6 seconds 164 msec
