                         Program Version 3.0.3 - RELEASE   -
|  1> ! RI PBE def2-SVP def2-SVP/J NBO PAL2
|  2> % maxcore 2000
|  3> % output
|  4>     # printlevel mini
|  5>     print[ P_Basis ] 0
|  6>     print[ P_SCFInfo ] 1
|  7>     print[ P_SCFIterInfo ] 1
|  8>     print[ P_OrbEn ] 0
|  9>     print[ P_Cartesian ] 0
| 10> end
| 11> *xyz 0 1
| 12>  C        3.2361020000     1.3422570000     0.5796800000
| 13>  C        3.2594180000     0.0643370000     0.2347400000
| 14>  S        3.2554310000    -0.3877640000    -1.4624200000
| 15>  O        2.4377720000    -1.5508920000    -1.6259790000
| 16>  O        3.0862430000     0.7962460000    -2.2636820000
| 17>  C        5.0302770000    -0.8576480000    -1.7249280000
| 18>  O        5.3789920000    -1.9813620000    -1.8423330000
| 19>  H        3.2100970000     1.6417070000     1.6214620000
| 20>  H        3.2200900000     2.1162220000    -0.1800230000
| 21>  H        3.2588350000    -0.7696270000     0.9275940000
| 22>  H        5.6838410000     0.0342430000    -1.7959220000
| 23> *
| 24>
| 25>                          ****END OF INPUT****
 Total Charge           Charge          ....    0
 Multiplicity           Mult            ....    1
 Number of Electrons    NEL             ....   62
 Basis Dimension        Dim             ....  122

MULLIKEN ATOMIC CHARGES
-----------------------
   0 C :    0.042839
   1 C :   -0.138926
   2 S :    0.604349
   3 O :   -0.377188
   4 O :   -0.401131
   5 C :    0.108069
   6 O :   -0.074327
   7 H :    0.061124
   8 H :    0.072566
   9 H :    0.062726
  10 H :    0.039899
Sum of atomic charges:   -0.0000000

LOEWDIN ATOMIC CHARGES
----------------------
   0 C :    0.007301
   1 C :   -0.195980
   2 S :    1.033776
   3 O :   -0.439828
   4 O :   -0.457745
   5 C :   -0.037185
   6 O :   -0.032572
   7 H :    0.042721
   8 H :    0.040217
   9 H :    0.039244
  10 H :    0.000050

  Mayer bond orders larger than 0.1
B(  0-C ,  1-C ) :   1.9221 B(  0-C ,  7-H ) :   0.9432 B(  0-C ,  8-H ) :   0.9358
B(  1-C ,  2-S ) :   0.8491 B(  1-C ,  9-H ) :   0.9388 B(  2-S ,  3-O ) :   1.7397
B(  2-S ,  4-O ) :   1.6931 B(  2-S ,  5-C ) :   0.6673 B(  5-C ,  6-O ) :   2.2030
B(  5-C , 10-H ) :   0.8769

FINAL SINGLE POINT ENERGY      -739.531163099580

DIPOLE MOMENT
-------------
                                X             Y             Z
Electronic contribution:     -0.21542      -3.38178      -3.88247
Nuclear contribution   :      0.91483       4.26715       5.16767
                        -----------------------------------------
Total Dipole Moment    :      0.69941       0.88537       1.28520
                        -----------------------------------------
Magnitude (a.u.)       :      1.71020
Magnitude (Debye)      :      4.34697

                             ****ORCA TERMINATED NORMALLY****
TOTAL RUN TIME: 0 days 0 hours 0 minutes 5 seconds 953 msec
