                         Program Version 3.0.3 - RELEASE   -
|  1> ! RI PBE def2-SVP def2-SVP/J NBO PAL2
|  2> % maxcore 2000
|  3> % output
|  4>     # printlevel mini
|  5>     print[ P_Basis ] 0
|  6>     print[ P_SCFInfo ] 1
|  7>     print[ P_SCFIterInfo ] 1
|  8>     print[ P_OrbEn ] 0
|  9>     print[ P_Cartesian ] 0
| 10> end
| 11> *xyz 0 1
| 12>  C        1.1787720000    -0.4719140000     0.4057440000
| 13>  C        2.2641540000     0.1917970000    -0.4239420000
| 14>  S        2.3396830000     1.9230280000    -0.0354580000
| 15>  O        1.1390030000     2.5778980000    -0.4816650000
| 16>  O        2.8016390000     2.1020790000     1.3151390000
| 17>  C        3.6802440000     2.5538450000    -1.1092100000
| 18>  O        4.2985670000     1.8725100000    -1.8609180000
| 19>  H        1.1383220000    -1.5342520000     0.1611480000
| 20>  H        0.2021670000    -0.0339780000     0.1963940000
| 21>  H        1.3844930000    -0.3726250000     1.4721230000
| 22>  H        2.0714920000     0.1250070000    -1.4963070000
| 23>  H        3.2563230000    -0.2136850000    -0.2172260000
| 24>  H        3.8284320000     3.6416970000    -0.9594220000
| 25> *
| 26>
| 27>                          ****END OF INPUT****
 Total Charge           Charge          ....    0
 Multiplicity           Mult            ....    1
 Number of Electrons    NEL             ....   64
 Basis Dimension        Dim             ....  132

MULLIKEN ATOMIC CHARGES
-----------------------
   0 C :   -0.030781
   1 C :   -0.090739
   2 S :    0.548191
   3 O :   -0.401966
   4 O :   -0.401549
   5 C :    0.139712
   6 O :   -0.122980
   7 H :    0.054104
   8 H :    0.051713
   9 H :    0.057035
  10 H :    0.066931
  11 H :    0.066204
  12 H :    0.064127
Sum of atomic charges:   -0.0000000

LOEWDIN ATOMIC CHARGES
----------------------
   0 C :   -0.072568
   1 C :   -0.161536
   2 S :    1.039100
   3 O :   -0.452270
   4 O :   -0.452112
   5 C :   -0.036271
   6 O :   -0.069226
   7 H :    0.042381
   8 H :    0.037029
   9 H :    0.037818
  10 H :    0.039716
  11 H :    0.039554
  12 H :    0.008383

  Mayer bond orders larger than 0.1
B(  0-C ,  1-C ) :   1.0867 B(  0-C ,  7-H ) :   0.9638 B(  0-C ,  8-H ) :   0.9615
B(  0-C ,  9-H ) :   0.9621 B(  1-C ,  2-S ) :   0.8240 B(  1-C , 10-H ) :   0.9202
B(  1-C , 11-H ) :   0.9203 B(  2-S ,  3-O ) :   1.6929 B(  2-S ,  4-O ) :   1.6945
B(  2-S ,  5-C ) :   0.7188 B(  5-C ,  6-O ) :   2.1357 B(  5-C , 12-H ) :   0.8941

FINAL SINGLE POINT ENERGY      -740.767433831125

DIPOLE MOMENT
-------------
                                X             Y             Z
Electronic contribution:      3.03371       6.72835      -1.02344
Nuclear contribution   :     -2.86496      -7.47741       0.67196
                        -----------------------------------------
Total Dipole Moment    :      0.16876      -0.74906      -0.35148
                        -----------------------------------------
Magnitude (a.u.)       :      0.84446
Magnitude (Debye)      :      2.14644

                             ****ORCA TERMINATED NORMALLY****
TOTAL RUN TIME: 0 days 0 hours 0 minutes 6 seconds 699 msec
