                         Program Version 3.0.3 - RELEASE   -
|  1> ! RI PBE def2-SVP def2-SVP/J NBO PAL2
|  2> % maxcore 2000
|  3> % output
|  4>     # printlevel mini
|  5>     print[ P_Basis ] 0
|  6>     print[ P_SCFInfo ] 1
|  7>     print[ P_SCFIterInfo ] 1
|  8>     print[ P_OrbEn ] 0
|  9>     print[ P_Cartesian ] 0
| 10> end
| 11> *xyz 0 1
| 12>  C        1.1309810000     0.0134470000     0.2829080000
| 13>  C        2.6436870000    -0.0575820000     0.1882770000
| 14>  S        3.1412310000    -1.4261600000    -0.8369940000
| 15>  O        2.8964230000    -2.6580700000    -0.1365510000
| 16>  O        2.5998640000    -1.2196970000    -2.1604500000
| 17>  C        4.9206290000    -1.2284740000    -1.0202200000
| 18>  O        5.2284820000    -0.1197270000    -1.7945030000
| 19>  H        0.8434360000     0.8604470000     0.9078640000
| 20>  H        0.7234830000    -0.8950350000     0.7283740000
| 21>  H        0.6863090000     0.1458290000    -0.7038480000
| 22>  H        3.1103480000    -0.2210860000     1.1622460000
| 23>  H        3.0743010000     0.8351820000    -0.2712090000
| 24>  H        5.2393780000    -2.1864850000    -1.4528070000
| 25>  H        5.3682930000    -1.1136340000    -0.0320280000
| 26>  H        4.7283650000    -0.1935540000    -2.6173700000
| 27> *
| 28>
| 29>                          ****END OF INPUT****
 Total Charge           Charge          ....    0
 Multiplicity           Mult            ....    1
 Number of Electrons    NEL             ....   66
 Basis Dimension        Dim             ....  142

MULLIKEN ATOMIC CHARGES
-----------------------
   0 C :   -0.013488
   1 C :   -0.091934
   2 S :    0.544199
   3 O :   -0.414118
   4 O :   -0.434304
   5 C :    0.139695
   6 O :   -0.258902
   7 H :    0.046391
   8 H :    0.049857
   9 H :    0.050716
  10 H :    0.053844
  11 H :    0.050991
  12 H :    0.056643
  13 H :    0.051252
  14 H :    0.169157
Sum of atomic charges:    0.0000000

LOEWDIN ATOMIC CHARGES
----------------------
   0 C :   -0.072032
   1 C :   -0.163976
   2 S :    1.072514
   3 O :   -0.474675
   4 O :   -0.485990
   5 C :   -0.069798
   6 O :   -0.101962
   7 H :    0.039138
   8 H :    0.036251
   9 H :    0.036403
  10 H :    0.033469
  11 H :    0.032321
  12 H :    0.019195
  13 H :    0.027791
  14 H :    0.071351

  Mayer bond orders larger than 0.1
B(  0-C ,  1-C ) :   1.0884 B(  0-C ,  7-H ) :   0.9641 B(  0-C ,  8-H ) :   0.9630
B(  0-C ,  9-H ) :   0.9612 B(  1-C ,  2-S ) :   0.8332 B(  1-C , 10-H ) :   0.9218
B(  1-C , 11-H ) :   0.9162 B(  2-S ,  3-O ) :   1.7106 B(  2-S ,  4-O ) :   1.6708
B(  2-S ,  5-C ) :   0.8056 B(  5-C ,  6-O ) :   1.0801 B(  5-C , 12-H ) :   0.9156
B(  5-C , 13-H ) :   0.9308 B(  6-O , 14-H ) :   0.9582

FINAL SINGLE POINT ENERGY      -741.977725894697

DIPOLE MOMENT
-------------
                                X             Y             Z
Electronic contribution:      2.27317      -4.28360      -3.47501
Nuclear contribution   :     -1.90106       5.12391       3.95530
                        -----------------------------------------
Total Dipole Moment    :      0.37211       0.84030       0.48029
                        -----------------------------------------
Magnitude (a.u.)       :      1.03694
Magnitude (Debye)      :      2.63570

                             ****ORCA TERMINATED NORMALLY****
TOTAL RUN TIME: 0 days 0 hours 0 minutes 6 seconds 815 msec
