                         Program Version 3.0.3 - RELEASE   -
|  1> ! RI PBE def2-SVP def2-SVP/J NBO PAL2
|  2> % maxcore 2000
|  3> % output
|  4>     # printlevel mini
|  5>     print[ P_Basis ] 0
|  6>     print[ P_SCFInfo ] 1
|  7>     print[ P_SCFIterInfo ] 1
|  8>     print[ P_OrbEn ] 0
|  9>     print[ P_Cartesian ] 0
| 10> end
| 11> *xyz 0 1
| 12>  C        0.7607690000     0.0148450000    -0.0375700000
| 13>  C        2.2702500000    -0.0300890000     0.1086150000
| 14>  S        3.0119810000     1.5222240000    -0.3599960000
| 15>  O        2.7413280000     1.7146160000    -1.7534810000
| 16>  O        2.6365730000     2.4956250000     0.6211780000
| 17>  N        4.6230430000     1.3337010000    -0.2045180000
| 18>  C        5.3873350000     0.4918720000    -1.0996910000
| 19>  H        0.3308370000    -0.9451320000     0.2547180000
| 20>  H        0.4782520000     0.2191640000    -1.0708560000
| 21>  H        0.3328180000     0.7910360000     0.5979730000
| 22>  H        2.7153500000    -0.7937740000    -0.5342020000
| 23>  H        2.5742650000    -0.2156020000     1.1415200000
| 24>  H        4.9401580000     1.4262950000     0.7485390000
| 25>  H        4.9776530000     0.5962260000    -2.1037240000
| 26>  H        5.3784650000    -0.5672220000    -0.8170880000
| 27>  H        6.4212150000     0.8397230000    -1.1203080000
| 28> *
| 29>
| 30>                          ****END OF INPUT****
 Total Charge           Charge          ....    0
 Multiplicity           Mult            ....    1
 Number of Electrons    NEL             ....   66
 Basis Dimension        Dim             ....  147

MULLIKEN ATOMIC CHARGES
-----------------------
   0 C :   -0.012114
   1 C :   -0.070416
   2 S :    0.652244
   3 O :   -0.404208
   4 O :   -0.407840
   5 N :   -0.295868
   6 C :    0.065934
   7 H :    0.035480
   8 H :    0.045599
   9 H :    0.046789
  10 H :    0.041453
  11 H :    0.037820
  12 H :    0.132591
  13 H :    0.057732
  14 H :    0.031354
  15 H :    0.043447
Sum of atomic charges:   -0.0000000

LOEWDIN ATOMIC CHARGES
----------------------
   0 C :   -0.073666
   1 C :   -0.170528
   2 S :    1.101314
   3 O :   -0.467238
   4 O :   -0.472228
   5 N :   -0.212331
   6 C :   -0.010021
   7 H :    0.034854
   8 H :    0.034790
   9 H :    0.035154
  10 H :    0.028540
  11 H :    0.027419
  12 H :    0.063183
  13 H :    0.035107
  14 H :    0.011919
  15 H :    0.033732

  Mayer bond orders larger than 0.1
B(  0-C ,  1-C ) :   1.0879 B(  0-C ,  7-H ) :   0.9593 B(  0-C ,  8-H ) :   0.9638
B(  0-C ,  9-H ) :   0.9641 B(  1-C ,  2-S ) :   0.8698 B(  1-C , 10-H ) :   0.9170
B(  1-C , 11-H ) :   0.9201 B(  2-S ,  3-O ) :   1.7452 B(  2-S ,  4-O ) :   1.7615
B(  2-S ,  5-N ) :   1.0023 B(  5-N ,  6-C ) :   0.9918 B(  5-N , 12-H ) :   0.9230
B(  6-C , 13-H ) :   0.9603 B(  6-C , 14-H ) :   0.9658 B(  6-C , 15-H ) :   0.9665

FINAL SINGLE POINT ENERGY      -722.134613428453

DIPOLE MOMENT
-------------
                                X             Y             Z
Electronic contribution:      0.21307       6.93927      -0.04057
Nuclear contribution   :      0.57402      -8.44392       0.54805
                        -----------------------------------------
Total Dipole Moment    :      0.78709      -1.50465       0.50748
                        -----------------------------------------
Magnitude (a.u.)       :      1.77229
Magnitude (Debye)      :      4.50481

                             ****ORCA TERMINATED NORMALLY****
TOTAL RUN TIME: 0 days 0 hours 0 minutes 7 seconds 289 msec
