                         Program Version 3.0.3 - RELEASE   -
|  1> ! RI PBE def2-SVP def2-SVP/J NBO PAL2
|  2> % maxcore 2000
|  3> % output
|  4>     # printlevel mini
|  5>     print[ P_Basis ] 0
|  6>     print[ P_SCFInfo ] 1
|  7>     print[ P_SCFIterInfo ] 1
|  8>     print[ P_OrbEn ] 0
|  9>     print[ P_Cartesian ] 0
| 10> end
| 11> *xyz 0 1
| 12>  C        1.0107960000     0.0167380000     0.1947830000
| 13>  C        2.5064260000     0.0417690000    -0.0605590000
| 14>  S        3.0617650000    -1.5479710000    -0.6022000000
| 15>  O        2.9219340000    -2.5047340000     0.4529250000
| 16>  O        2.5105780000    -1.8509430000    -1.8877300000
| 17>  O        4.5999590000    -1.1778510000    -0.7690840000
| 18>  C        5.4423090000    -2.2488340000    -1.2143280000
| 19>  H        0.6837820000     1.0027780000     0.5281500000
| 20>  H        0.7579440000    -0.7087160000     0.9688790000
| 21>  H        0.4629150000    -0.2379770000    -0.7131630000
| 22>  H        3.0780570000     0.2720320000     0.8398670000
| 23>  H        2.7818170000     0.7440070000    -0.8489600000
| 24>  H        6.4433840000    -1.8278930000    -1.2705670000
| 25>  H        5.1245720000    -2.5952690000    -2.1989720000
| 26>  H        5.4200720000    -3.0705360000    -0.4968290000
| 27> *
| 28>
| 29>                          ****END OF INPUT****
 Total Charge           Charge          ....    0
 Multiplicity           Mult            ....    1
 Number of Electrons    NEL             ....   66
 Basis Dimension        Dim             ....  142

MULLIKEN ATOMIC CHARGES
-----------------------
   0 C :   -0.030338
   1 C :   -0.089580
   2 S :    0.760727
   3 O :   -0.402588
   4 O :   -0.402856
   5 O :   -0.397678
   6 C :    0.129975
   7 H :    0.044928
   8 H :    0.052162
   9 H :    0.052584
  10 H :    0.063683
  11 H :    0.066391
  12 H :    0.054089
  13 H :    0.046558
  14 H :    0.051944
Sum of atomic charges:   -0.0000000

LOEWDIN ATOMIC CHARGES
----------------------
   0 C :   -0.073811
   1 C :   -0.156406
   2 S :    1.115242
   3 O :   -0.462219
   4 O :   -0.462307
   5 O :   -0.278899
   6 C :    0.050204
   7 H :    0.039718
   8 H :    0.036613
   9 H :    0.036944
  10 H :    0.038650
  11 H :    0.038943
  12 H :    0.033448
  13 H :    0.021666
  14 H :    0.022215

  Mayer bond orders larger than 0.1
B(  0-C ,  1-C ) :   1.0846 B(  0-C ,  7-H ) :   0.9608 B(  0-C ,  8-H ) :   0.9638
B(  0-C ,  9-H ) :   0.9633 B(  1-C ,  2-S ) :   0.8802 B(  1-C , 10-H ) :   0.9201
B(  1-C , 11-H ) :   0.9220 B(  2-S ,  3-O ) :   1.7611 B(  2-S ,  4-O ) :   1.7601
B(  2-S ,  5-O ) :   0.9831 B(  5-O ,  6-C ) :   0.9095 B(  6-C , 12-H ) :   0.9777
B(  6-C , 13-H ) :   0.9674 B(  6-C , 14-H ) :   0.9680

FINAL SINGLE POINT ENERGY      -741.974117131665

DIPOLE MOMENT
-------------
                                X             Y             Z
Electronic contribution:      0.95853      -3.39817      -1.12334
Nuclear contribution   :     -0.41760       4.29336       1.27677
                        -----------------------------------------
Total Dipole Moment    :      0.54093       0.89519       0.15343
                        -----------------------------------------
Magnitude (a.u.)       :      1.05713
Magnitude (Debye)      :      2.68701

                             ****ORCA TERMINATED NORMALLY****
TOTAL RUN TIME: 0 days 0 hours 0 minutes 7 seconds 91 msec
