                         Program Version 3.0.3 - RELEASE   -
|  1> ! RI PBE def2-SVP def2-SVP/J NBO PAL2
|  2> % maxcore 2000
|  3> % output
|  4>     # printlevel mini
|  5>     print[ P_Basis ] 0
|  6>     print[ P_SCFInfo ] 1
|  7>     print[ P_SCFIterInfo ] 1
|  8>     print[ P_OrbEn ] 0
|  9>     print[ P_Cartesian ] 0
| 10> end
| 11> *xyz 0 1
| 12>  C        0.7887930000    -0.0865310000     0.0148280000
| 13>  N        2.2262660000     0.0395330000     0.0168060000
| 14>  S        3.0026900000     1.5432270000     0.0194550000
| 15>  C        4.6657400000     0.7622910000     0.0210800000
| 16>  O        5.6799820000     1.4078460000     0.0231800000
| 17>  C        4.4170570000    -0.6499160000     0.0193060000
| 18>  C        3.0982030000    -0.9791690000     0.0170760000
| 19>  H        0.3449970000     0.9075920000     0.0146500000
| 20>  H        0.4419220000    -0.6155450000     0.9064120000
| 21>  H        0.4443730000    -0.6147570000    -0.8781680000
| 22>  H        5.2301590000    -1.3597500000     0.0197560000
| 23>  H        2.6978370000    -1.9861320000     0.0155100000
| 24> *
| 25>
| 26>                          ****END OF INPUT****
 Total Charge           Charge          ....    0
 Multiplicity           Mult            ....    1
 Number of Electrons    NEL             ....   60
 Basis Dimension        Dim             ....  127

MULLIKEN ATOMIC CHARGES
-----------------------
   0 C :    0.115367
   1 N :   -0.363813
   2 S :    0.138781
   3 C :    0.015500
   4 O :   -0.169091
   5 C :   -0.081151
   6 C :    0.164485
   7 H :    0.047781
   8 H :    0.051975
   9 H :    0.051933
  10 H :    0.009203
  11 H :    0.019031
Sum of atomic charges:   -0.0000000

LOEWDIN ATOMIC CHARGES
----------------------
   0 C :    0.013195
   1 N :   -0.112884
   2 S :    0.333603
   3 C :   -0.109279
   4 O :   -0.162634
   5 C :   -0.151244
   6 C :    0.011460
   7 H :    0.036727
   8 H :    0.033787
   9 H :    0.033792
  10 H :    0.040301
  11 H :    0.033177

  Mayer bond orders larger than 0.1
B(  0-C ,  1-N ) :   0.9597 B(  0-C ,  7-H ) :   0.9651 B(  0-C ,  8-H ) :   0.9667
B(  0-C ,  9-H ) :   0.9667 B(  1-N ,  2-S ) :   0.9660 B(  1-N ,  6-C ) :   1.2035
B(  2-S ,  3-C ) :   0.9074 B(  2-S ,  4-O ) :   0.1842 B(  3-C ,  4-O ) :   2.0746
B(  3-C ,  5-C ) :   1.1323 B(  5-C ,  6-C ) :   1.4885 B(  5-C , 10-H ) :   0.9917
B(  6-C , 11-H ) :   0.9667

FINAL SINGLE POINT ENERGY      -682.743570241506

DIPOLE MOMENT
-------------
                                X             Y             Z
Electronic contribution:      5.13664       4.70894       0.01163
Nuclear contribution   :     -6.98486      -5.79964      -0.01532
                        -----------------------------------------
Total Dipole Moment    :     -1.84821      -1.09070      -0.00369
                        -----------------------------------------
Magnitude (a.u.)       :      2.14605
Magnitude (Debye)      :      5.45483

                             ****ORCA TERMINATED NORMALLY****
TOTAL RUN TIME: 0 days 0 hours 0 minutes 6 seconds 511 msec
