                         Program Version 3.0.3 - RELEASE   -
|  1> ! RI PBE def2-SVP def2-SVP/J NBO PAL2
|  2> % maxcore 2000
|  3> % output
|  4>     # printlevel mini
|  5>     print[ P_Basis ] 0
|  6>     print[ P_SCFInfo ] 1
|  7>     print[ P_SCFIterInfo ] 1
|  8>     print[ P_OrbEn ] 0
|  9>     print[ P_Cartesian ] 0
| 10> end
| 11> *xyz 0 1
| 12>  C        1.0631220000    -0.0813110000     0.1244070000
| 13>  N        2.4361180000    -0.0290030000    -0.2821130000
| 14>  C        3.2366260000     1.1604530000    -0.0798100000
| 15>  C        4.5758270000     0.7466420000    -0.6819780000
| 16>  N        4.5111820000    -0.6902060000    -0.5164990000
| 17>  C        3.2204290000    -1.1237370000    -0.4471750000
| 18>  S        2.7392110000    -2.7025990000    -0.5461210000
| 19>  H        0.4815970000     0.6701780000    -0.4152490000
| 20>  H        0.9578950000     0.0988720000     1.2016380000
| 21>  H        0.6804590000    -1.0755240000    -0.1048920000
| 22>  H        3.3291490000     1.3874440000     0.9920770000
| 23>  H        2.7964770000     2.0271640000    -0.5772570000
| 24>  H        5.4254350000     1.1811600000    -0.1538340000
| 25>  H        4.6353930000     1.0306860000    -1.7404070000
| 26>  H        5.1836790000    -1.3112090000    -0.9316970000
| 27> *
| 28>
| 29>                          ****END OF INPUT****
 Total Charge           Charge          ....    0
 Multiplicity           Mult            ....    1
 Number of Electrons    NEL             ....   62
 Basis Dimension        Dim             ....  142

MULLIKEN ATOMIC CHARGES
-----------------------
   0 C :    0.117573
   1 N :   -0.298810
   2 C :    0.118220
   3 C :    0.113599
   4 N :   -0.164722
   5 C :    0.073171
   6 S :   -0.274830
   7 H :    0.024804
   8 H :    0.020990
   9 H :    0.043202
  10 H :    0.025446
  11 H :    0.025374
  12 H :    0.026643
  13 H :    0.028491
  14 H :    0.120849
Sum of atomic charges:   -0.0000000

LOEWDIN ATOMIC CHARGES
----------------------
   0 C :    0.014612
   1 N :   -0.034501
   2 C :    0.036347
   3 C :    0.028684
   4 N :   -0.013169
   5 C :   -0.125153
   6 S :   -0.144326
   7 H :    0.023443
   8 H :    0.020004
   9 H :    0.027393
  10 H :    0.019428
  11 H :    0.026280
  12 H :    0.027174
  13 H :    0.019848
  14 H :    0.073936

  Mayer bond orders larger than 0.1
B(  0-C ,  1-N ) :   1.0059 B(  0-C ,  7-H ) :   0.9661 B(  0-C ,  8-H ) :   0.9584
B(  0-C ,  9-H ) :   0.9374 B(  1-N ,  2-C ) :   1.0023 B(  1-N ,  5-C ) :   1.1690
B(  2-C ,  3-C ) :   1.1016 B(  2-C , 10-H ) :   0.9203 B(  2-C , 11-H ) :   0.9415
B(  3-C ,  4-N ) :   1.0209 B(  3-C , 12-H ) :   0.9402 B(  3-C , 13-H ) :   0.9282
B(  4-N ,  5-C ) :   1.1702 B(  4-N , 14-H ) :   0.9289 B(  5-C ,  6-S ) :   1.6094

FINAL SINGLE POINT ENERGY      -664.122440481669

DIPOLE MOMENT
-------------
                                X             Y             Z
Electronic contribution:      1.35119      -7.37026      -1.19217
Nuclear contribution   :     -0.82311       9.26455       1.18986
                        -----------------------------------------
Total Dipole Moment    :      0.52808       1.89428      -0.00231
                        -----------------------------------------
Magnitude (a.u.)       :      1.96652
Magnitude (Debye)      :      4.99849

                             ****ORCA TERMINATED NORMALLY****
TOTAL RUN TIME: 0 days 0 hours 0 minutes 7 seconds 172 msec
