                         Program Version 3.0.3 - RELEASE   -
|  1> ! RI PBE def2-SVP def2-SVP/J NBO PAL2
|  2> % maxcore 2000
|  3> % output
|  4>     # printlevel mini
|  5>     print[ P_Basis ] 0
|  6>     print[ P_SCFInfo ] 1
|  7>     print[ P_SCFIterInfo ] 1
|  8>     print[ P_OrbEn ] 0
|  9>     print[ P_Cartesian ] 0
| 10> end
| 11> *xyz 0 1
| 12>  C        0.8757680000    -0.0228580000     0.0385930000
| 13>  N        2.3108670000    -0.0750850000     0.1802400000
| 14>  C        3.0418230000     0.9481840000     0.9418330000
| 15>  C        4.1612700000     0.0048100000     1.4078980000
| 16>  S        3.0696210000    -1.3429100000     0.9608840000
| 17>  O        2.3140480000    -1.7991640000     2.0938900000
| 18>  O        3.6018350000    -2.3109570000     0.0567740000
| 19>  H        0.6109910000     0.8664390000    -0.5364230000
| 20>  H        0.3598250000     0.0037480000     1.0063730000
| 21>  H        0.5355200000    -0.8957040000    -0.5197760000
| 22>  H        2.4627610000     1.3396320000     1.7858080000
| 23>  H        3.3751300000     1.7707210000     0.3074050000
| 24>  H        4.4126870000     0.0212600000     2.4647580000
| 25>  H        5.0483450000     0.0134870000     0.7781450000
| 26> *
| 27>
| 28>                          ****END OF INPUT****
 Total Charge           Charge          ....    0
 Multiplicity           Mult            ....    1
 Number of Electrons    NEL             ....   64
 Basis Dimension        Dim             ....  137

MULLIKEN ATOMIC CHARGES
-----------------------
   0 C :    0.083022
   1 N :   -0.432393
   2 C :    0.146313
   3 C :   -0.064489
   4 S :    0.693594
   5 O :   -0.397649
   6 O :   -0.376513
   7 H :    0.042759
   8 H :    0.032891
   9 H :    0.054233
  10 H :    0.032760
  11 H :    0.043365
  12 H :    0.073957
  13 H :    0.068149
Sum of atomic charges:   -0.0000000

LOEWDIN ATOMIC CHARGES
----------------------
   0 C :   -0.010158
   1 N :   -0.248712
   2 C :    0.017632
   3 C :   -0.149709
   4 S :    1.094299
   5 O :   -0.467417
   6 O :   -0.445955
   7 H :    0.033815
   8 H :    0.014984
   9 H :    0.037704
  10 H :    0.016919
  11 H :    0.027642
  12 H :    0.038712
  13 H :    0.040242

  Mayer bond orders larger than 0.1
B(  0-C ,  1-N ) :   0.9858 B(  0-C ,  7-H ) :   0.9685 B(  0-C ,  8-H ) :   0.9567
B(  0-C ,  9-H ) :   0.9680 B(  1-N ,  2-C ) :   0.9700 B(  1-N ,  4-S ) :   0.9416
B(  2-C ,  3-C ) :   1.0746 B(  2-C , 10-H ) :   0.9270 B(  2-C , 11-H ) :   0.9398
B(  3-C ,  4-S ) :   0.8713 B(  3-C , 12-H ) :   0.9371 B(  3-C , 13-H ) :   0.9157
B(  4-S ,  5-O ) :   1.7327 B(  4-S ,  6-O ) :   1.7949

FINAL SINGLE POINT ENERGY      -720.915033367921

DIPOLE MOMENT
-------------
                                X             Y             Z
Electronic contribution:      2.66615      -6.42996       0.56264
Nuclear contribution   :     -2.63713       8.08842      -0.55633
                        -----------------------------------------
Total Dipole Moment    :      0.02901       1.65846       0.00631
                        -----------------------------------------
Magnitude (a.u.)       :      1.65872
Magnitude (Debye)      :      4.21614

                             ****ORCA TERMINATED NORMALLY****
TOTAL RUN TIME: 0 days 0 hours 0 minutes 6 seconds 871 msec
