                         Program Version 3.0.3 - RELEASE   -
|  1> ! RI PBE def2-SVP def2-SVP/J NBO PAL2
|  2> % maxcore 2000
|  3> % output
|  4>     # printlevel mini
|  5>     print[ P_Basis ] 0
|  6>     print[ P_SCFInfo ] 1
|  7>     print[ P_SCFIterInfo ] 1
|  8>     print[ P_OrbEn ] 0
|  9>     print[ P_Cartesian ] 0
| 10> end
| 11> *xyz 0 1
| 12>  C        0.9719420000    -0.0069730000     0.0743810000
| 13>  N        2.4133740000    -0.0161560000     0.0782500000
| 14>  C        3.2108010000     1.1024550000     0.0829290000
| 15>  C        4.5258250000     0.8541720000     0.0859470000
| 16>  S        4.8247470000    -0.8589650000     0.0829130000
| 17>  C        3.0875920000    -1.2183040000     0.0774000000
| 18>  N        2.4785320000    -2.3355890000     0.0732600000
| 19>  H        0.6250440000     1.0253470000     0.0755660000
| 20>  H        0.5868100000    -0.5266460000     0.9540960000
| 21>  H        0.5915910000    -0.5230190000    -0.8095360000
| 22>  H        2.7422650000     2.0758990000     0.0838380000
| 23>  H        5.3293490000     1.5710520000     0.0897340000
| 24>  H        3.1148080000    -3.1234740000     0.0732210000
| 25> *
| 26>
| 27>                          ****END OF INPUT****
 Total Charge           Charge          ....    0
 Multiplicity           Mult            ....    1
 Number of Electrons    NEL             ....   60
 Basis Dimension        Dim             ....  132

MULLIKEN ATOMIC CHARGES
-----------------------
   0 C :    0.123469
   1 N :   -0.210254
   2 C :    0.139068
   3 C :   -0.127409
   4 S :    0.041092
   5 C :   -0.069775
   6 N :   -0.154279
   7 H :    0.024189
   8 H :    0.046243
   9 H :    0.046160
  10 H :    0.011694
  11 H :    0.035839
  12 H :    0.093964
Sum of atomic charges:   -0.0000000

LOEWDIN ATOMIC CHARGES
----------------------
   0 C :    0.031104
   1 N :    0.007604
   2 C :   -0.021318
   3 C :   -0.231555
   4 S :    0.330623
   5 C :   -0.122382
   6 N :   -0.203046
   7 H :    0.028319
   8 H :    0.034422
   9 H :    0.034412
  10 H :    0.030215
  11 H :    0.029957
  12 H :    0.051644

  Mayer bond orders larger than 0.1
B(  0-C ,  1-N ) :   0.9876 B(  0-C ,  7-H ) :   0.9631 B(  0-C ,  8-H ) :   0.9627
B(  0-C ,  9-H ) :   0.9627 B(  1-N ,  2-C ) :   1.1304 B(  1-N ,  5-C ) :   1.1038
B(  2-C ,  3-C ) :   1.6631 B(  2-C , 10-H ) :   0.9766 B(  3-C ,  4-S ) :   1.0786
B(  3-C , 11-H ) :   0.9671 B(  4-S ,  5-C ) :   1.0005 B(  4-S ,  6-N ) :   0.1564
B(  5-C ,  6-N ) :   1.8758 B(  6-N , 12-H ) :   0.9223

FINAL SINGLE POINT ENERGY      -662.900994909609

DIPOLE MOMENT
-------------
                                X             Y             Z
Electronic contribution:      6.38463      -2.11518       0.01264
Nuclear contribution   :     -6.50320       2.99624      -0.01089
                        -----------------------------------------
Total Dipole Moment    :     -0.11857       0.88106       0.00175
                        -----------------------------------------
Magnitude (a.u.)       :      0.88900
Magnitude (Debye)      :      2.25966

                             ****ORCA TERMINATED NORMALLY****
TOTAL RUN TIME: 0 days 0 hours 0 minutes 6 seconds 644 msec
