                         Program Version 3.0.3 - RELEASE   -
|  1> ! RI PBE def2-SVP def2-SVP/J NBO PAL2
|  2> % maxcore 2000
|  3> % output
|  4>     # printlevel mini
|  5>     print[ P_Basis ] 0
|  6>     print[ P_SCFInfo ] 1
|  7>     print[ P_SCFIterInfo ] 1
|  8>     print[ P_OrbEn ] 0
|  9>     print[ P_Cartesian ] 0
| 10> end
| 11> *xyz 0 1
| 12>  C        1.0624860000    -0.0506980000     0.0360710000
| 13>  N        2.5067310000    -0.0914790000     0.0402740000
| 14>  C        3.3312120000     1.0107770000     0.0441410000
| 15>  C        4.6391460000     0.7224650000     0.0476530000
| 16>  S        4.8998210000    -0.9899520000     0.0462370000
| 17>  C        3.1472100000    -1.3083010000     0.0406060000
| 18>  O        2.6079610000    -2.3875110000     0.0376490000
| 19>  H        0.7377620000     0.9883840000     0.0362160000
| 20>  H        0.6656960000    -0.5560030000     0.9181970000
| 21>  H        0.6709210000    -0.5541270000    -0.8494530000
| 22>  H        2.8882300000     1.9958770000     0.0440990000
| 23>  H        5.4582240000     1.4221790000     0.0509910000
| 24> *
| 25>
| 26>                          ****END OF INPUT****
 Total Charge           Charge          ....    0
 Multiplicity           Mult            ....    1
 Number of Electrons    NEL             ....   60
 Basis Dimension        Dim             ....  127

MULLIKEN ATOMIC CHARGES
-----------------------
   0 C :    0.107203
   1 N :   -0.228324
   2 C :    0.135201
   3 C :   -0.130211
   4 S :    0.034540
   5 C :    0.078012
   6 O :   -0.194861
   7 H :    0.031343
   8 H :    0.054674
   9 H :    0.054599
  10 H :    0.015082
  11 H :    0.042741
Sum of atomic charges:   -0.0000000

LOEWDIN ATOMIC CHARGES
----------------------
   0 C :    0.031305
   1 N :   -0.001265
   2 C :   -0.025841
   3 C :   -0.223808
   4 S :    0.348565
   5 C :   -0.113806
   6 O :   -0.183545
   7 H :    0.032068
   8 H :    0.037082
   9 H :    0.037073
  10 H :    0.030371
  11 H :    0.031801

  Mayer bond orders larger than 0.1
B(  0-C ,  1-N ) :   0.9700 B(  0-C ,  7-H ) :   0.9662 B(  0-C ,  8-H ) :   0.9667
B(  0-C ,  9-H ) :   0.9667 B(  1-N ,  2-C ) :   1.1166 B(  1-N ,  5-C ) :   1.0940
B(  2-C ,  3-C ) :   1.6606 B(  2-C , 10-H ) :   0.9780 B(  3-C ,  4-S ) :   1.1086
B(  3-C , 11-H ) :   0.9683 B(  4-S ,  5-C ) :   1.0083 B(  4-S ,  6-O ) :   0.1544
B(  5-C ,  6-O ) :   2.0437

FINAL SINGLE POINT ENERGY      -682.770903084401

DIPOLE MOMENT
-------------
                                X             Y             Z
Electronic contribution:      5.79589      -4.14413       0.01190
Nuclear contribution   :     -6.20050       5.66331      -0.01106
                        -----------------------------------------
Total Dipole Moment    :     -0.40461       1.51917       0.00084
                        -----------------------------------------
Magnitude (a.u.)       :      1.57213
Magnitude (Debye)      :      3.99604

                             ****ORCA TERMINATED NORMALLY****
TOTAL RUN TIME: 0 days 0 hours 0 minutes 6 seconds 282 msec
