                         Program Version 3.0.3 - RELEASE   -
|  1> ! RI PBE def2-SVP def2-SVP/J NBO PAL2
|  2> % maxcore 2000
|  3> % output
|  4>     # printlevel mini
|  5>     print[ P_Basis ] 0
|  6>     print[ P_SCFInfo ] 1
|  7>     print[ P_SCFIterInfo ] 1
|  8>     print[ P_OrbEn ] 0
|  9>     print[ P_Cartesian ] 0
| 10> end
| 11> *xyz 0 1
| 12>  C        1.0647630000    -0.0421520000     0.5021750000
| 13>  N        2.3959640000     0.0203590000    -0.0818020000
| 14>  C        3.2125040000     1.1325320000     0.4056210000
| 15>  S        4.1474300000    -0.0125290000     1.4699980000
| 16>  O        3.5424010000    -0.0931440000     2.7714780000
| 17>  O        5.5733030000     0.0307450000     1.3346900000
| 18>  C        3.2682520000    -1.0923090000     0.2951270000
| 19>  H        0.5026200000     0.8410890000     0.1954480000
| 20>  H        1.0712990000    -0.0973150000     1.5996710000
| 21>  H        0.5463020000    -0.9168000000     0.1067090000
| 22>  H        2.6684130000     1.9176210000     0.9304270000
| 23>  H        3.8710200000     1.5469030000    -0.3604800000
| 24>  H        2.7655000000    -1.9509600000     0.7398990000
| 25>  H        3.9441190000    -1.3965410000    -0.5066710000
| 26> *
| 27>
| 28>                          ****END OF INPUT****
 Total Charge           Charge          ....    0
 Multiplicity           Mult            ....    1
 Number of Electrons    NEL             ....   64
 Basis Dimension        Dim             ....  137

MULLIKEN ATOMIC CHARGES
-----------------------
   0 C :    0.071344
   1 N :   -0.406477
   2 C :    0.139461
   3 S :    0.504795
   4 O :   -0.398328
   5 O :   -0.385715
   6 C :    0.140572
   7 H :    0.037906
   8 H :    0.027421
   9 H :    0.037014
  10 H :    0.057120
  11 H :    0.059400
  12 H :    0.056823
  13 H :    0.058664
Sum of atomic charges:   -0.0000000

LOEWDIN ATOMIC CHARGES
----------------------
   0 C :   -0.000410
   1 N :   -0.132577
   2 C :   -0.085851
   3 S :    1.047735
   4 O :   -0.465185
   5 O :   -0.454584
   6 C :   -0.085690
   7 H :    0.029047
   8 H :    0.010414
   9 H :    0.028924
  10 H :    0.027560
  11 H :    0.026651
  12 H :    0.027411
  13 H :    0.026553

  Mayer bond orders larger than 0.1
B(  0-C ,  1-N ) :   0.9870 B(  0-C ,  7-H ) :   0.9706 B(  0-C ,  8-H ) :   0.9458
B(  0-C ,  9-H ) :   0.9704 B(  1-N ,  2-C ) :   1.0141 B(  1-N ,  6-C ) :   1.0147
B(  2-C ,  3-S ) :   0.7624 B(  2-C , 10-H ) :   0.9330 B(  2-C , 11-H ) :   0.9262
B(  3-S ,  4-O ) :   1.6918 B(  3-S ,  5-O ) :   1.7564 B(  3-S ,  6-C ) :   0.7616
B(  6-C , 12-H ) :   0.9330 B(  6-C , 13-H ) :   0.9262

FINAL SINGLE POINT ENERGY      -720.899346212717

DIPOLE MOMENT
-------------
                                X             Y             Z
Electronic contribution:      7.20950       0.00769       3.52675
Nuclear contribution   :     -8.25872       0.01182      -4.43554
                        -----------------------------------------
Total Dipole Moment    :     -1.04922       0.01951      -0.90879
                        -----------------------------------------
Magnitude (a.u.)       :      1.38822
Magnitude (Debye)      :      3.52857

                             ****ORCA TERMINATED NORMALLY****
TOTAL RUN TIME: 0 days 0 hours 0 minutes 6 seconds 555 msec
