                         Program Version 3.0.3 - RELEASE   -
|  1> ! RI PBE def2-SVP def2-SVP/J NBO PAL2
|  2> % maxcore 2000
|  3> % output
|  4>     # printlevel mini
|  5>     print[ P_Basis ] 0
|  6>     print[ P_SCFInfo ] 1
|  7>     print[ P_SCFIterInfo ] 1
|  8>     print[ P_OrbEn ] 0
|  9>     print[ P_Cartesian ] 0
| 10> end
| 11> *xyz 0 1
| 12>  C        1.0095200000    -0.0670800000    -0.0314570000
| 13>  N        2.4467950000     0.0087750000    -0.0357160000
| 14>  S        3.2738060000     1.4721400000    -0.0409990000
| 15>  C        4.7726020000     0.6489010000    -0.0438550000
| 16>  C        4.6322050000    -0.6864370000    -0.0408810000
| 17>  C        3.2430100000    -1.1220300000    -0.0360000000
| 18>  N        2.7018790000    -2.2842980000    -0.0322800000
| 19>  H        0.5912430000     0.9393890000    -0.0314970000
| 20>  H        0.6639790000    -0.6056750000     0.8540170000
| 21>  H        0.6587510000    -0.6079180000    -0.9135100000
| 22>  H        5.6887740000     1.2217060000    -0.0476430000
| 23>  H        5.4563490000    -1.3856730000    -0.0419730000
| 24>  H        3.4149990000    -3.0052010000    -0.0329950000
| 25> *
| 26>
| 27>                          ****END OF INPUT****
 Total Charge           Charge          ....    0
 Multiplicity           Mult            ....    1
 Number of Electrons    NEL             ....   60
 Basis Dimension        Dim             ....  132

MULLIKEN ATOMIC CHARGES
-----------------------
   0 C :    0.140091
   1 N :   -0.429366
   2 S :    0.246663
   3 C :   -0.066053
   4 C :   -0.018294
   5 C :    0.049365
   6 N :   -0.143162
   7 H :    0.022810
   8 H :    0.045544
   9 H :    0.045597
  10 H :    0.042709
  11 H :   -0.014696
  12 H :    0.078791
Sum of atomic charges:   -0.0000000

LOEWDIN ATOMIC CHARGES
----------------------
   0 C :    0.013158
   1 N :   -0.155536
   2 S :    0.442613
   3 C :   -0.177807
   4 C :   -0.095804
   5 C :   -0.022099
   6 N :   -0.207510
   7 H :    0.023843
   8 H :    0.033469
   9 H :    0.033459
  10 H :    0.032243
  11 H :    0.034949
  12 H :    0.045021

  Mayer bond orders larger than 0.1
B(  0-C ,  1-N ) :   0.9735 B(  0-C ,  7-H ) :   0.9618 B(  0-C ,  8-H ) :   0.9629
B(  0-C ,  9-H ) :   0.9630 B(  1-N ,  2-S ) :   0.9830 B(  1-N ,  5-C ) :   1.0123
B(  2-S ,  3-C ) :   1.1261 B(  2-S ,  4-C ) :   0.1344 B(  3-C ,  4-C ) :   1.6542
B(  3-C , 10-H ) :   0.9533 B(  4-C ,  5-C ) :   1.0690 B(  4-C , 11-H ) :   0.9977
B(  5-C ,  6-N ) :   1.8504 B(  6-N , 12-H ) :   0.9236

FINAL SINGLE POINT ENERGY      -662.874895426110

DIPOLE MOMENT
-------------
                                X             Y             Z
Electronic contribution:      2.71440       3.93474      -0.01535
Nuclear contribution   :     -2.19232      -3.14406       0.01226
                        -----------------------------------------
Total Dipole Moment    :      0.52208       0.79068      -0.00309
                        -----------------------------------------
Magnitude (a.u.)       :      0.94749
Magnitude (Debye)      :      2.40834

                             ****ORCA TERMINATED NORMALLY****
TOTAL RUN TIME: 0 days 0 hours 0 minutes 7 seconds 274 msec
