                         Program Version 3.0.3 - RELEASE   -
|  1> ! RI PBE def2-SVP def2-SVP/J NBO PAL2
|  2> % maxcore 2000
|  3> % output
|  4>     # printlevel mini
|  5>     print[ P_Basis ] 0
|  6>     print[ P_SCFInfo ] 1
|  7>     print[ P_SCFIterInfo ] 1
|  8>     print[ P_OrbEn ] 0
|  9>     print[ P_Cartesian ] 0
| 10> end
| 11> *xyz 0 1
| 12>  C        0.8744300000    -0.1327270000    -0.0458770000
| 13>  N        2.3154040000    -0.0580620000    -0.0502650000
| 14>  S        3.1504770000     1.3970780000    -0.0547170000
| 15>  C        4.6437370000     0.5652090000    -0.0581690000
| 16>  C        4.4996030000    -0.7708690000    -0.0559940000
| 17>  C        3.1061290000    -1.1981480000    -0.0512030000
| 18>  O        2.6331050000    -2.3187750000    -0.0483600000
| 19>  H        0.4557370000     0.8730610000    -0.0453670000
| 20>  H        0.5292520000    -0.6677670000     0.8408640000
| 21>  H        0.5238440000    -0.6691200000    -0.9296800000
| 22>  H        5.5596650000     1.1385400000    -0.0616970000
| 23>  H        5.3096170000    -1.4848290000    -0.0575350000
| 24> *
| 25>
| 26>                          ****END OF INPUT****
 Total Charge           Charge          ....    0
 Multiplicity           Mult            ....    1
 Number of Electrons    NEL             ....   60
 Basis Dimension        Dim             ....  127

MULLIKEN ATOMIC CHARGES
-----------------------
   0 C :    0.124785
   1 N :   -0.427445
   2 S :    0.249436
   3 C :   -0.062418
   4 C :   -0.066573
   5 C :    0.196867
   6 O :   -0.211437
   7 H :    0.030012
   8 H :    0.053955
   9 H :    0.054009
  10 H :    0.049638
  11 H :    0.009170
Sum of atomic charges:   -0.0000000

LOEWDIN ATOMIC CHARGES
----------------------
   0 C :    0.013328
   1 N :   -0.162193
   2 S :    0.447719
   3 C :   -0.173271
   4 C :   -0.098071
   5 C :   -0.003910
   6 O :   -0.199108
   7 H :    0.027544
   8 H :    0.036555
   9 H :    0.036550
  10 H :    0.033483
  11 H :    0.041373

  Mayer bond orders larger than 0.1
B(  0-C ,  1-N ) :   0.9535 B(  0-C ,  7-H ) :   0.9645 B(  0-C ,  8-H ) :   0.9664
B(  0-C ,  9-H ) :   0.9664 B(  1-N ,  2-S ) :   0.9796 B(  1-N ,  5-C ) :   1.0062
B(  2-S ,  3-C ) :   1.1304 B(  2-S ,  4-C ) :   0.1290 B(  3-C ,  4-C ) :   1.6364
B(  3-C , 10-H ) :   0.9587 B(  4-C ,  5-C ) :   1.0574 B(  4-C , 11-H ) :   0.9998
B(  5-C ,  6-O ) :   2.0583

FINAL SINGLE POINT ENERGY      -682.745107947614

DIPOLE MOMENT
-------------
                                X             Y             Z
Electronic contribution:      2.59910       1.67596      -0.01000
Nuclear contribution   :     -2.48235      -0.33117       0.00782
                        -----------------------------------------
Total Dipole Moment    :      0.11675       1.34479      -0.00218
                        -----------------------------------------
Magnitude (a.u.)       :      1.34985
Magnitude (Debye)      :      3.43105

                             ****ORCA TERMINATED NORMALLY****
TOTAL RUN TIME: 0 days 0 hours 0 minutes 6 seconds 945 msec
