                         Program Version 3.0.3 - RELEASE   -
|  1> ! RI PBE def2-SVP def2-SVP/J NBO PAL2
|  2> % maxcore 2000
|  3> % output
|  4>     # printlevel mini
|  5>     print[ P_Basis ] 0
|  6>     print[ P_SCFInfo ] 1
|  7>     print[ P_SCFIterInfo ] 1
|  8>     print[ P_OrbEn ] 0
|  9>     print[ P_Cartesian ] 0
| 10> end
| 11> *xyz 0 1
| 12>  C        2.3021570000    -1.3411290000    -0.1886680000
| 13>  N        2.3519840000     0.0851580000    -0.0695750000
| 14>  C        3.0144390000     0.7314940000     0.9307720000
| 15>  C        3.1315670000     2.0825330000     1.1496450000
| 16>  C        3.9034550000     2.3781940000     2.2992270000
| 17>  C        4.3660980000     1.2753170000     2.9446310000
| 18>  S        3.8590240000    -0.1618140000     2.1471610000
| 19>  H        1.7137810000    -1.6063540000    -1.0664090000
| 20>  H        1.8336730000    -1.8077710000     0.6872550000
| 21>  H        3.3028320000    -1.7758940000    -0.3073100000
| 22>  H        1.8788470000     0.6506930000    -0.7478960000
| 23>  H        2.6797620000     2.8280110000     0.5080670000
| 24>  H        4.1081690000     3.3866000000     2.6358070000
| 25>  H        4.9705230000     1.2098620000     3.8348920000
| 26> *
| 27>
| 28>                          ****END OF INPUT****
 Total Charge           Charge          ....    0
 Multiplicity           Mult            ....    1
 Number of Electrons    NEL             ....   60
 Basis Dimension        Dim             ....  137

MULLIKEN ATOMIC CHARGES
-----------------------
   0 C :    0.073224
   1 N :   -0.139589
   2 C :   -0.093749
   3 C :    0.018078
   4 C :    0.026998
   5 C :   -0.099483
   6 S :    0.042874
   7 H :    0.029884
   8 H :    0.035776
   9 H :    0.035045
  10 H :    0.113322
  11 H :   -0.042214
  12 H :   -0.019298
  13 H :    0.019132
Sum of atomic charges:   -0.0000000

LOEWDIN ATOMIC CHARGES
----------------------
   0 C :   -0.001232
   1 N :   -0.023178
   2 C :   -0.143229
   3 C :   -0.142362
   4 C :   -0.065735
   5 C :   -0.238941
   6 S :    0.395739
   7 H :    0.032660
   8 H :    0.019367
   9 H :    0.019194
  10 H :    0.078345
  11 H :    0.021060
  12 H :    0.027585
  13 H :    0.020728

  Mayer bond orders larger than 0.1
B(  0-C ,  1-N ) :   1.0429 B(  0-C ,  7-H ) :   0.9710 B(  0-C ,  8-H ) :   0.9555
B(  0-C ,  9-H ) :   0.9553 B(  1-N ,  2-C ) :   1.2134 B(  1-N , 10-H ) :   0.9376
B(  2-C ,  3-C ) :   1.4428 B(  2-C ,  6-S ) :   1.1375 B(  3-C ,  4-C ) :   1.2632
B(  3-C , 11-H ) :   0.9909 B(  4-C ,  5-C ) :   1.5568 B(  4-C , 12-H ) :   0.9856
B(  5-C ,  6-S ) :   1.0939 B(  5-C , 13-H ) :   0.9699

FINAL SINGLE POINT ENERGY      -646.871492779257

DIPOLE MOMENT
-------------
                                X             Y             Z
Electronic contribution:      2.24243       0.53453       3.32518
Nuclear contribution   :     -2.73973      -0.78532      -4.06320
                        -----------------------------------------
Total Dipole Moment    :     -0.49730      -0.25079      -0.73802
                        -----------------------------------------
Magnitude (a.u.)       :      0.92459
Magnitude (Debye)      :      2.35012

                             ****ORCA TERMINATED NORMALLY****
TOTAL RUN TIME: 0 days 0 hours 0 minutes 7 seconds 291 msec
