                         Program Version 3.0.3 - RELEASE   -
|  1> ! RI PBE def2-SVP def2-SVP/J NBO PAL2
|  2> % maxcore 2000
|  3> % output
|  4>     # printlevel mini
|  5>     print[ P_Basis ] 0
|  6>     print[ P_SCFInfo ] 1
|  7>     print[ P_SCFIterInfo ] 1
|  8>     print[ P_OrbEn ] 0
|  9>     print[ P_Cartesian ] 0
| 10> end
| 11> *xyz 0 1
| 12>  C        0.8696760000     0.0161220000    -0.1055210000
| 13>  N        2.3092000000    -0.0561870000    -0.1473190000
| 14>  C        2.9512310000     0.7646800000     0.5744290000
| 15>  S        4.7375350000     0.7217070000     0.5630600000
| 16>  N        4.8206090000     2.0023470000     1.6756750000
| 17>  C        3.6070700000     2.4546230000     2.0506160000
| 18>  C        2.5562480000     1.8191450000     1.4838480000
| 19>  H        0.4510030000    -0.7404420000    -0.7703030000
| 20>  H        0.4915050000     0.9945470000    -0.4339710000
| 21>  H        0.4720490000    -0.1689950000     0.9023610000
| 22>  H        5.6998660000     2.3590210000     1.9980630000
| 23>  H        3.5607550000     3.2718570000     2.7592440000
| 24>  H        1.5238540000     2.0620750000     1.6798090000
| 25> *
| 26>
| 27>                          ****END OF INPUT****
 Total Charge           Charge          ....    0
 Multiplicity           Mult            ....    1
 Number of Electrons    NEL             ....   60
 Basis Dimension        Dim             ....  132

MULLIKEN ATOMIC CHARGES
-----------------------
   0 C :    0.072211
   1 N :   -0.201239
   2 C :   -0.118280
   3 S :    0.212777
   4 N :   -0.250760
   5 C :    0.155392
   6 C :   -0.064480
   7 H :    0.023869
   8 H :    0.009149
   9 H :    0.009341
  10 H :    0.146640
  11 H :    0.017577
  12 H :   -0.012198
Sum of atomic charges:   -0.0000000

LOEWDIN ATOMIC CHARGES
----------------------
   0 C :   -0.011818
   1 N :   -0.178288
   2 C :   -0.151263
   3 S :    0.385675
   4 N :   -0.096301
   5 C :    0.010537
   6 C :   -0.149879
   7 H :    0.020750
   8 H :    0.013351
   9 H :    0.013459
  10 H :    0.077101
  11 H :    0.032557
  12 H :    0.034120

  Mayer bond orders larger than 0.1
B(  0-C ,  1-N ) :   1.0573 B(  0-C ,  7-H ) :   0.9747 B(  0-C ,  8-H ) :   0.9494
B(  0-C ,  9-H ) :   0.9495 B(  1-N ,  2-C ) :   1.8768 B(  1-N ,  3-S ) :   0.1191
B(  2-C ,  3-S ) :   0.9903 B(  2-C ,  6-C ) :   1.0995 B(  3-S ,  4-N ) :   0.9556
B(  4-N ,  5-C ) :   1.1866 B(  4-N ,  6-C ) :   0.1150 B(  4-N , 10-H ) :   0.9378
B(  5-C ,  6-C ) :   1.5311 B(  5-C , 11-H ) :   0.9631 B(  6-C , 12-H ) :   0.9895

FINAL SINGLE POINT ENERGY      -662.869463568687

DIPOLE MOMENT
-------------
                                X             Y             Z
Electronic contribution:      8.07718      -0.30047      -0.14594
Nuclear contribution   :     -7.52470       1.44084       1.14139
                        -----------------------------------------
Total Dipole Moment    :      0.55248       1.14037       0.99545
                        -----------------------------------------
Magnitude (a.u.)       :      1.61139
Magnitude (Debye)      :      4.09583

                             ****ORCA TERMINATED NORMALLY****
TOTAL RUN TIME: 0 days 0 hours 0 minutes 6 seconds 753 msec
