                         Program Version 3.0.3 - RELEASE   -
|  1> ! RI PBE def2-SVP def2-SVP/J NBO PAL2
|  2> % maxcore 2000
|  3> % output
|  4>     # printlevel mini
|  5>     print[ P_Basis ] 0
|  6>     print[ P_SCFInfo ] 1
|  7>     print[ P_SCFIterInfo ] 1
|  8>     print[ P_OrbEn ] 0
|  9>     print[ P_Cartesian ] 0
| 10> end
| 11> *xyz 0 1
| 12>  C        0.9300580000     0.0354610000    -0.0064110000
| 13>  N        2.3408920000     0.0247560000     0.2379790000
| 14>  C        3.0728530000    -1.1257920000     0.3742020000
| 15>  C        4.4274640000    -1.1822460000     0.6094860000
| 16>  S        4.9847860000    -2.7930300000     0.7191340000
| 17>  C        3.4295510000    -3.4198460000     0.4545900000
| 18>  C        2.5047470000    -2.4322360000     0.2862850000
| 19>  H        0.5899580000     1.0688180000    -0.0736510000
| 20>  H        0.3644080000    -0.4482030000     0.8001880000
| 21>  H        0.6672480000    -0.4623120000    -0.9485590000
| 22>  H        2.8213280000     0.8993360000     0.3143500000
| 23>  H        5.1139230000    -0.3570770000     0.7218110000
| 24>  H        3.2644170000    -4.4861020000     0.4345850000
| 25>  H        1.4563570000    -2.6264580000     0.1061090000
| 26> *
| 27>
| 28>                          ****END OF INPUT****
 Total Charge           Charge          ....    0
 Multiplicity           Mult            ....    1
 Number of Electrons    NEL             ....   60
 Basis Dimension        Dim             ....  137

MULLIKEN ATOMIC CHARGES
-----------------------
   0 C :    0.084197
   1 N :   -0.155690
   2 C :    0.099242
   3 C :   -0.171339
   4 S :    0.077871
   5 C :   -0.091832
   6 C :   -0.011026
   7 H :    0.020848
   8 H :    0.028906
   9 H :    0.024479
  10 H :    0.101007
  11 H :   -0.005712
  12 H :    0.025073
  13 H :   -0.026025
Sum of atomic charges:   -0.0000000

LOEWDIN ATOMIC CHARGES
----------------------
   0 C :    0.006594
   1 N :   -0.025323
   2 C :   -0.028838
   3 C :   -0.278955
   4 S :    0.433491
   5 C :   -0.205764
   6 C :   -0.102432
   7 H :    0.029765
   8 H :    0.017933
   9 H :    0.017183
  10 H :    0.070453
  11 H :    0.015577
  12 H :    0.023857
  13 H :    0.026458

  Mayer bond orders larger than 0.1
B(  0-C ,  1-N ) :   1.0545 B(  0-C ,  7-H ) :   0.9692 B(  0-C ,  8-H ) :   0.9579
B(  0-C ,  9-H ) :   0.9565 B(  1-N ,  2-C ) :   1.1958 B(  1-N , 10-H ) :   0.9425
B(  2-C ,  3-C ) :   1.4467 B(  2-C ,  6-C ) :   1.2540 B(  3-C ,  4-S ) :   1.1202
B(  3-C , 11-H ) :   0.9703 B(  4-S ,  5-C ) :   1.2156 B(  5-C ,  6-C ) :   1.4956
B(  5-C , 12-H ) :   0.9625 B(  6-C , 13-H ) :   0.9892

FINAL SINGLE POINT ENERGY      -646.870956938842

DIPOLE MOMENT
-------------
                                X             Y             Z
Electronic contribution:      8.13055      -4.57905       1.44553
Nuclear contribution   :     -8.68019       5.23864      -1.54635
                        -----------------------------------------
Total Dipole Moment    :     -0.54964       0.65958      -0.10082
                        -----------------------------------------
Magnitude (a.u.)       :      0.86448
Magnitude (Debye)      :      2.19733

                             ****ORCA TERMINATED NORMALLY****
TOTAL RUN TIME: 0 days 0 hours 0 minutes 6 seconds 214 msec
