                         Program Version 3.0.3 - RELEASE   -
|  1> ! RI PBE def2-SVP def2-SVP/J NBO PAL2
|  2> % maxcore 2000
|  3> % output
|  4>     # printlevel mini
|  5>     print[ P_Basis ] 0
|  6>     print[ P_SCFInfo ] 1
|  7>     print[ P_SCFIterInfo ] 1
|  8>     print[ P_OrbEn ] 0
|  9>     print[ P_Cartesian ] 0
| 10> end
| 11> *xyz 0 1
| 12>  C        0.9485810000    -0.0756310000     0.2661440000
| 13>  N        2.3708280000    -0.0386840000     0.0951450000
| 14>  C        3.1531130000    -1.1475810000     0.0266190000
| 15>  N        4.4577830000    -1.0247010000    -0.1318930000
| 16>  S        5.1447600000    -2.5118880000    -0.1805510000
| 17>  C        3.6974440000    -3.3669970000     0.0113070000
| 18>  C        2.6623740000    -2.4866490000     0.1152030000
| 19>  H        0.5698100000     0.9456290000     0.2885520000
| 20>  H        0.6571000000    -0.5589550000     1.2063500000
| 21>  H        0.4462100000    -0.5984780000    -0.5565320000
| 22>  H        2.8441500000     0.8423340000     0.0191060000
| 23>  H        3.6556740000    -4.4461900000     0.0404450000
| 24>  H        1.6268650000    -2.7660080000     0.2450860000
| 25> *
| 26>
| 27>                          ****END OF INPUT****
 Total Charge           Charge          ....    0
 Multiplicity           Mult            ....    1
 Number of Electrons    NEL             ....   60
 Basis Dimension        Dim             ....  132

MULLIKEN ATOMIC CHARGES
-----------------------
   0 C :    0.081479
   1 N :   -0.137947
   2 C :    0.074865
   3 N :   -0.346035
   4 S :    0.253203
   5 C :   -0.077733
   6 C :   -0.055527
   7 H :    0.027400
   8 H :    0.028745
   9 H :    0.032353
  10 H :    0.113972
  11 H :    0.028752
  12 H :   -0.023526
Sum of atomic charges:   -0.0000000

LOEWDIN ATOMIC CHARGES
----------------------
   0 C :    0.007741
   1 N :   -0.013583
   2 C :   -0.022854
   3 N :   -0.339411
   4 S :    0.488833
   5 C :   -0.200487
   6 C :   -0.124965
   7 H :    0.033028
   8 H :    0.019640
   9 H :    0.020256
  10 H :    0.075676
  11 H :    0.027517
  12 H :    0.028609

  Mayer bond orders larger than 0.1
B(  0-C ,  1-N ) :   1.0468 B(  0-C ,  7-H ) :   0.9703 B(  0-C ,  8-H ) :   0.9585
B(  0-C ,  9-H ) :   0.9597 B(  1-N ,  2-C ) :   1.2165 B(  1-N , 10-H ) :   0.9280
B(  2-C ,  3-N ) :   1.5141 B(  2-C ,  6-C ) :   1.1895 B(  3-N ,  4-S ) :   1.1546
B(  3-N ,  5-C ) :   0.1316 B(  4-S ,  5-C ) :   1.2116 B(  4-S ,  6-C ) :   0.1095
B(  5-C ,  6-C ) :   1.5284 B(  5-C , 11-H ) :   0.9523 B(  6-C , 12-H ) :   0.9828

FINAL SINGLE POINT ENERGY      -662.900095552774

DIPOLE MOMENT
-------------
                                X             Y             Z
Electronic contribution:      9.37574      -3.08291      -1.04948
Nuclear contribution   :    -10.38625       3.08589       1.17189
                        -----------------------------------------
Total Dipole Moment    :     -1.01051       0.00298       0.12241
                        -----------------------------------------
Magnitude (a.u.)       :      1.01790
Magnitude (Debye)      :      2.58729

                             ****ORCA TERMINATED NORMALLY****
TOTAL RUN TIME: 0 days 0 hours 0 minutes 6 seconds 543 msec
