                         Program Version 3.0.3 - RELEASE   -
|  1> ! RI PBE def2-SVP def2-SVP/J NBO PAL2
|  2> % maxcore 2000
|  3> % output
|  4>     # printlevel mini
|  5>     print[ P_Basis ] 0
|  6>     print[ P_SCFInfo ] 1
|  7>     print[ P_SCFIterInfo ] 1
|  8>     print[ P_OrbEn ] 0
|  9>     print[ P_Cartesian ] 0
| 10> end
| 11> *xyz 0 1
| 12>  C        2.9959200000    -1.2073150000     0.6388390000
| 13>  N        2.5084760000     0.1082620000     0.3471270000
| 14>  C        3.0748100000     0.9318980000    -0.5755070000
| 15>  C        2.7105590000     2.2038510000    -0.9471060000
| 16>  N        3.4798560000     2.7797500000    -1.9099200000
| 17>  C        4.4277650000     1.9945320000    -2.2953040000
| 18>  S        4.4569400000     0.4577520000    -1.4968500000
| 19>  H        2.3712000000    -1.6562760000     1.4102030000
| 20>  H        4.0285520000    -1.1872280000     1.0091010000
| 21>  H        2.9648160000    -1.8589830000    -0.2433070000
| 22>  H        1.7085070000     0.4546360000     0.8416220000
| 23>  H        1.8739350000     2.7464530000    -0.5262650000
| 24>  H        5.1646660000     2.2328680000    -3.0495320000
| 25> *
| 26>
| 27>                          ****END OF INPUT****
 Total Charge           Charge          ....    0
 Multiplicity           Mult            ....    1
 Number of Electrons    NEL             ....   60
 Basis Dimension        Dim             ....  132

MULLIKEN ATOMIC CHARGES
-----------------------
   0 C :    0.072850
   1 N :   -0.143388
   2 C :   -0.089177
   3 C :    0.023395
   4 N :   -0.095417
   5 C :   -0.040408
   6 S :    0.034592
   7 H :    0.033938
   8 H :    0.036951
   9 H :    0.040722
  10 H :    0.117732
  11 H :   -0.028540
  12 H :    0.036751
Sum of atomic charges:   -0.0000000

LOEWDIN ATOMIC CHARGES
----------------------
   0 C :    0.000227
   1 N :   -0.018468
   2 C :   -0.157650
   3 C :   -0.118582
   4 N :   -0.079822
   5 C :   -0.189646
   6 S :    0.375392
   7 H :    0.034134
   8 H :    0.021294
   9 H :    0.021618
  10 H :    0.080578
  11 H :    0.015931
  12 H :    0.014994

  Mayer bond orders larger than 0.1
B(  0-C ,  1-N ) :   1.0384 B(  0-C ,  7-H ) :   0.9700 B(  0-C ,  8-H ) :   0.9560
B(  0-C ,  9-H ) :   0.9577 B(  1-N ,  2-C ) :   1.2181 B(  1-N , 10-H ) :   0.9388
B(  2-C ,  3-C ) :   1.4300 B(  2-C ,  6-S ) :   1.1424 B(  3-C ,  4-N ) :   1.3783
B(  3-C , 11-H ) :   0.9909 B(  4-N ,  5-C ) :   1.7050 B(  4-N ,  6-S ) :   0.1271
B(  5-C ,  6-S ) :   1.0673 B(  5-C , 12-H ) :   0.9598

FINAL SINGLE POINT ENERGY      -662.898437425501

DIPOLE MOMENT
-------------
                                X             Y             Z
Electronic contribution:      2.55968       3.28310      -3.94193
Nuclear contribution   :     -2.94442      -4.37264       4.84988
                        -----------------------------------------
Total Dipole Moment    :     -0.38474      -1.08954       0.90794
                        -----------------------------------------
Magnitude (a.u.)       :      1.46952
Magnitude (Debye)      :      3.73522

                             ****ORCA TERMINATED NORMALLY****
TOTAL RUN TIME: 0 days 0 hours 0 minutes 6 seconds 499 msec
