                         Program Version 3.0.3 - RELEASE   -
|  1> ! RI PBE def2-SVP def2-SVP/J NBO PAL2
|  2> % maxcore 2000
|  3> % output
|  4>     # printlevel mini
|  5>     print[ P_Basis ] 0
|  6>     print[ P_SCFInfo ] 1
|  7>     print[ P_SCFIterInfo ] 1
|  8>     print[ P_OrbEn ] 0
|  9>     print[ P_Cartesian ] 0
| 10> end
| 11> *xyz 0 1
| 12>  C        1.7355230000    -0.3999290000     1.0339500000
| 13>  N        2.6297090000    -0.0304840000    -0.0238870000
| 14>  C        3.2243100000    -0.9449970000    -0.8491220000
| 15>  C        4.0924870000    -0.6798570000    -1.8856560000
| 16>  S        4.5564610000    -2.1423730000    -2.6084510000
| 17>  N        3.6748480000    -3.0978470000    -1.6280990000
| 18>  C        3.0294570000    -2.3546410000    -0.7586090000
| 19>  H        1.3976210000     0.5020960000     1.5433370000
| 20>  H        2.2197780000    -1.0421490000     1.7801280000
| 21>  H        0.8469700000    -0.9243110000     0.6608250000
| 22>  H        2.8305750000     0.9392170000    -0.1678170000
| 23>  H        4.4521850000     0.2800300000    -2.2256330000
| 24>  H        2.3930660000    -2.8431450000    -0.0297760000
| 25> *
| 26>
| 27>                          ****END OF INPUT****
 Total Charge           Charge          ....    0
 Multiplicity           Mult            ....    1
 Number of Electrons    NEL             ....   60
 Basis Dimension        Dim             ....  132

MULLIKEN ATOMIC CHARGES
-----------------------
   0 C :    0.082172
   1 N :   -0.157036
   2 C :    0.040060
   3 C :   -0.151951
   4 S :    0.250219
   5 N :   -0.284185
   6 C :    0.032402
   7 H :    0.025813
   8 H :    0.031476
   9 H :    0.031264
  10 H :    0.105821
  11 H :    0.000695
  12 H :   -0.006749
Sum of atomic charges:   -0.0000000

LOEWDIN ATOMIC CHARGES
----------------------
   0 C :    0.006725
   1 N :   -0.023412
   2 C :   -0.053632
   3 C :   -0.270606
   4 S :    0.498165
   5 N :   -0.269638
   6 C :   -0.071860
   7 H :    0.031999
   8 H :    0.019857
   9 H :    0.020037
  10 H :    0.072391
  11 H :    0.019817
  12 H :    0.020158

  Mayer bond orders larger than 0.1
B(  0-C ,  1-N ) :   1.0537 B(  0-C ,  7-H ) :   0.9684 B(  0-C ,  8-H ) :   0.9572
B(  0-C ,  9-H ) :   0.9576 B(  1-N ,  2-C ) :   1.2016 B(  1-N , 10-H ) :   0.9414
B(  2-C ,  3-C ) :   1.4456 B(  2-C ,  4-S ) :   0.1051 B(  2-C ,  6-C ) :   1.2030
B(  3-C ,  4-S ) :   1.1252 B(  3-C ,  5-N ) :   0.1479 B(  3-C , 11-H ) :   0.9661
B(  4-S ,  5-N ) :   1.2351 B(  5-N ,  6-C ) :   1.5778 B(  6-C , 12-H ) :   0.9795

FINAL SINGLE POINT ENERGY      -662.889579246247

DIPOLE MOMENT
-------------
                                X             Y             Z
Electronic contribution:      5.79018      -4.04637      -7.52458
Nuclear contribution   :     -6.18381       5.41514       8.15294
                        -----------------------------------------
Total Dipole Moment    :     -0.39363       1.36877       0.62836
                        -----------------------------------------
Magnitude (a.u.)       :      1.55670
Magnitude (Debye)      :      3.95681

                             ****ORCA TERMINATED NORMALLY****
TOTAL RUN TIME: 0 days 0 hours 0 minutes 6 seconds 534 msec
