                         Program Version 3.0.3 - RELEASE   -
|  1> ! RI PBE def2-SVP def2-SVP/J NBO PAL2
|  2> % maxcore 2000
|  3> % output
|  4>     # printlevel mini
|  5>     print[ P_Basis ] 0
|  6>     print[ P_SCFInfo ] 1
|  7>     print[ P_SCFIterInfo ] 1
|  8>     print[ P_OrbEn ] 0
|  9>     print[ P_Cartesian ] 0
| 10> end
| 11> *xyz 0 1
| 12>  C        2.0387000000    -1.2309840000    -0.1274400000
| 13>  N        2.2242140000     0.1742380000     0.1127770000
| 14>  C        2.9525490000     0.6544150000     1.1584880000
| 15>  C        3.1828280000     1.9772890000     1.4645770000
| 16>  S        4.1512070000     2.0726010000     2.8665630000
| 17>  C        4.1847560000     0.3730950000     2.9504760000
| 18>  N        3.5291910000    -0.2425630000     2.0130880000
| 19>  H        1.4220410000    -1.3500720000    -1.0184310000
| 20>  H        1.5364590000    -1.7252660000     0.7096590000
| 21>  H        2.9898970000    -1.7457230000    -0.2935320000
| 22>  H        1.8039880000     0.8346450000    -0.5104010000
| 23>  H        2.8407860000     2.8607710000     0.9501890000
| 24>  H        4.7207030000    -0.1395560000     3.7380870000
| 25> *
| 26>
| 27>                          ****END OF INPUT****
 Total Charge           Charge          ....    0
 Multiplicity           Mult            ....    1
 Number of Electrons    NEL             ....   60
 Basis Dimension        Dim             ....  132

MULLIKEN ATOMIC CHARGES
-----------------------
   0 C :    0.099199
   1 N :   -0.138978
   2 C :    0.045042
   3 C :   -0.147236
   4 S :    0.079006
   5 C :   -0.012300
   6 N :   -0.139303
   7 H :    0.015402
   8 H :    0.031229
   9 H :    0.029611
  10 H :    0.106822
  11 H :   -0.006919
  12 H :    0.038425
Sum of atomic charges:   -0.0000000

LOEWDIN ATOMIC CHARGES
----------------------
   0 C :    0.010181
   1 N :   -0.021270
   2 C :   -0.018017
   3 C :   -0.294783
   4 S :    0.427786
   5 C :   -0.165912
   6 N :   -0.118220
   7 H :    0.025401
   8 H :    0.022568
   9 H :    0.022399
  10 H :    0.072794
  11 H :    0.018840
  12 H :    0.018232

  Mayer bond orders larger than 0.1
B(  0-C ,  1-N ) :   1.0331 B(  0-C ,  7-H ) :   0.9684 B(  0-C ,  8-H ) :   0.9639
B(  0-C ,  9-H ) :   0.9635 B(  1-N ,  2-C ) :   1.2259 B(  1-N , 10-H ) :   0.9378
B(  2-C ,  3-C ) :   1.4344 B(  2-C ,  6-N ) :   1.3397 B(  3-C ,  4-S ) :   1.1211
B(  3-C , 11-H ) :   0.9640 B(  4-S ,  5-C ) :   1.2047 B(  4-S ,  6-N ) :   0.1442
B(  5-C ,  6-N ) :   1.6202 B(  5-C , 12-H ) :   0.9603

FINAL SINGLE POINT ENERGY      -662.903864962347

DIPOLE MOMENT
-------------
                                X             Y             Z
Electronic contribution:      3.91191       5.67383       5.55503
Nuclear contribution   :     -4.27770      -5.45059      -6.08926
                        -----------------------------------------
Total Dipole Moment    :     -0.36579       0.22324      -0.53423
                        -----------------------------------------
Magnitude (a.u.)       :      0.68487
Magnitude (Debye)      :      1.74079

                             ****ORCA TERMINATED NORMALLY****
TOTAL RUN TIME: 0 days 0 hours 0 minutes 6 seconds 546 msec
