                         Program Version 3.0.3 - RELEASE   -
|  1> ! RI PBE def2-SVP def2-SVP/J NBO PAL2
|  2> % maxcore 2000
|  3> % output
|  4>     # printlevel mini
|  5>     print[ P_Basis ] 0
|  6>     print[ P_SCFInfo ] 1
|  7>     print[ P_SCFIterInfo ] 1
|  8>     print[ P_OrbEn ] 0
|  9>     print[ P_Cartesian ] 0
| 10> end
| 11> *xyz 0 1
| 12>  C        3.3250650000    -1.2394970000     0.3692950000
| 13>  N        2.6980220000     0.0452740000     0.2699460000
| 14>  C        3.2989000000     1.1335090000    -0.2576470000
| 15>  N        2.7340480000     2.3031680000    -0.3502630000
| 16>  C        3.5906440000     3.1956060000    -0.9254830000
| 17>  C        4.8128820000     2.7313190000    -1.2798760000
| 18>  S        4.9260140000     1.0588630000    -0.8751910000
| 19>  H        2.6296890000    -1.9397270000     0.8297710000
| 20>  H        4.2299010000    -1.2028440000     0.9877320000
| 21>  H        3.6015530000    -1.6335040000    -0.6160200000
| 22>  H        1.7600060000     0.1854150000     0.6000170000
| 23>  H        3.2621690000     4.2168920000    -1.0709010000
| 24>  H        5.6351150000     3.2527360000    -1.7420800000
| 25> *
| 26>
| 27>                          ****END OF INPUT****
 Total Charge           Charge          ....    0
 Multiplicity           Mult            ....    1
 Number of Electrons    NEL             ....   60
 Basis Dimension        Dim             ....  132

MULLIKEN ATOMIC CHARGES
-----------------------
   0 C :    0.074219
   1 N :   -0.120392
   2 C :   -0.073480
   3 N :   -0.129603
   4 C :    0.072450
   5 C :   -0.110110
   6 S :    0.026933
   7 H :    0.038665
   8 H :    0.039845
   9 H :    0.037184
  10 H :    0.126456
  11 H :   -0.005385
  12 H :    0.023219
Sum of atomic charges:   -0.0000000

LOEWDIN ATOMIC CHARGES
----------------------
   0 C :    0.000896
   1 N :   -0.008670
   2 C :   -0.127729
   3 N :   -0.155631
   4 C :   -0.038956
   5 C :   -0.245816
   6 S :    0.364295
   7 H :    0.036154
   8 H :    0.022427
   9 H :    0.021878
  10 H :    0.083444
  11 H :    0.022952
  12 H :    0.024757

  Mayer bond orders larger than 0.1
B(  0-C ,  1-N ) :   1.0363 B(  0-C ,  7-H ) :   0.9712 B(  0-C ,  8-H ) :   0.9559
B(  0-C ,  9-H ) :   0.9559 B(  1-N ,  2-C ) :   1.2267 B(  1-N , 10-H ) :   0.9264
B(  2-C ,  3-N ) :   1.6106 B(  2-C ,  6-S ) :   1.0887 B(  3-N ,  4-C ) :   1.3314
B(  4-C ,  5-C ) :   1.5831 B(  4-C , 11-H ) :   0.9841 B(  5-C ,  6-S ) :   1.0958
B(  5-C , 12-H ) :   0.9616

FINAL SINGLE POINT ENERGY      -662.910600707980

DIPOLE MOMENT
-------------
                                X             Y             Z
Electronic contribution:      1.69925       3.33427      -1.56227
Nuclear contribution   :     -1.71881      -4.18082       1.79637
                        -----------------------------------------
Total Dipole Moment    :     -0.01956      -0.84655       0.23410
                        -----------------------------------------
Magnitude (a.u.)       :      0.87854
Magnitude (Debye)      :      2.23307

                             ****ORCA TERMINATED NORMALLY****
TOTAL RUN TIME: 0 days 0 hours 0 minutes 6 seconds 290 msec
