                         Program Version 3.0.3 - RELEASE   -
|  1> ! RI PBE def2-SVP def2-SVP/J NBO PAL2
|  2> % maxcore 2000
|  3> % output
|  4>     # printlevel mini
|  5>     print[ P_Basis ] 0
|  6>     print[ P_SCFInfo ] 1
|  7>     print[ P_SCFIterInfo ] 1
|  8>     print[ P_OrbEn ] 0
|  9>     print[ P_Cartesian ] 0
| 10> end
| 11> *xyz 0 1
| 12>  C        0.9619980000    -0.0921050000     0.2030040000
| 13>  N        2.3981990000    -0.0759400000     0.1548680000
| 14>  C        2.9445100000     0.6671400000    -0.7089130000
| 15>  N        4.3069460000     0.7862690000    -0.8736710000
| 16>  C        4.7256510000     1.6395440000    -1.8611600000
| 17>  C        3.7282560000     2.2359040000    -2.5247690000
| 18>  S        2.1753180000     1.7310790000    -1.9136940000
| 19>  H        0.6267130000    -0.7700490000     0.9884790000
| 20>  H        0.5214610000    -0.4327000000    -0.7458620000
| 21>  H        0.5453760000     0.9033210000     0.4174480000
| 22>  H        4.9191410000     0.2560110000    -0.2779230000
| 23>  H        5.7838320000     1.7707220000    -2.0334270000
| 24>  H        3.8103800000     2.9406950000    -3.3349900000
| 25> *
| 26>
| 27>                          ****END OF INPUT****
 Total Charge           Charge          ....    0
 Multiplicity           Mult            ....    1
 Number of Electrons    NEL             ....   60
 Basis Dimension        Dim             ....  132

MULLIKEN ATOMIC CHARGES
-----------------------
   0 C :    0.064713
   1 N :   -0.193168
   2 C :   -0.071036
   3 N :   -0.051175
   4 C :    0.116873
   5 C :   -0.125509
   6 S :    0.019977
   7 H :    0.029781
   8 H :    0.016293
   9 H :    0.016237
  10 H :    0.125343
  11 H :    0.015084
  12 H :    0.036587
Sum of atomic charges:   -0.0000000

LOEWDIN ATOMIC CHARGES
----------------------
   0 C :   -0.019099
   1 N :   -0.188386
   2 C :   -0.122649
   3 N :    0.048513
   4 C :   -0.022322
   5 C :   -0.230606
   6 S :    0.333847
   7 H :    0.023853
   8 H :    0.012911
   9 H :    0.012858
  10 H :    0.089220
  11 H :    0.032215
  12 H :    0.029646

  Mayer bond orders larger than 0.1
B(  0-C ,  1-N ) :   1.0438 B(  0-C ,  7-H ) :   0.9764 B(  0-C ,  8-H ) :   0.9463
B(  0-C ,  9-H ) :   0.9463 B(  1-N ,  2-C ) :   1.8648 B(  1-N ,  6-S ) :   0.1655
B(  2-C ,  3-N ) :   1.1239 B(  2-C ,  6-S ) :   0.9809 B(  3-N ,  4-C ) :   1.1604
B(  3-N , 10-H ) :   0.9238 B(  4-C ,  5-C ) :   1.6608 B(  4-C , 11-H ) :   0.9778
B(  5-C ,  6-S ) :   1.0746 B(  5-C , 12-H ) :   0.9702

FINAL SINGLE POINT ENERGY      -662.899760538645

DIPOLE MOMENT
-------------
                                X             Y             Z
Electronic contribution:      1.76581       2.00482      -2.33821
Nuclear contribution   :     -0.96439      -1.74198       2.01852
                        -----------------------------------------
Total Dipole Moment    :      0.80142       0.26284      -0.31969
                        -----------------------------------------
Magnitude (a.u.)       :      0.90197
Magnitude (Debye)      :      2.29263

                             ****ORCA TERMINATED NORMALLY****
TOTAL RUN TIME: 0 days 0 hours 0 minutes 6 seconds 578 msec
