                         Program Version 3.0.3 - RELEASE   -
|  1> ! RI PBE def2-SVP def2-SVP/J NBO PAL2
|  2> % maxcore 2000
|  3> % output
|  4>     # printlevel mini
|  5>     print[ P_Basis ] 0
|  6>     print[ P_SCFInfo ] 1
|  7>     print[ P_SCFIterInfo ] 1
|  8>     print[ P_OrbEn ] 0
|  9>     print[ P_Cartesian ] 0
| 10> end
| 11> *xyz 0 1
| 12>  C        1.0995400000     0.3878620000    -0.1501160000
| 13>  N        2.5074540000     0.2362940000     0.1436510000
| 14>  C        3.0799780000    -1.0085850000    -0.0855580000
| 15>  C        2.4176940000    -2.1329700000    -0.3553970000
| 16>  C        3.2392060000     1.2939630000     0.6187070000
| 17>  N        4.4815830000     0.9832340000     1.0792630000
| 18>  S        2.7217540000     2.8709840000     0.6197700000
| 19>  H        0.8989160000     0.0498910000    -1.1690170000
| 20>  H        0.8406050000     1.4384280000    -0.0500430000
| 21>  H        0.5010260000    -0.2071660000     0.5457700000
| 22>  H        4.1624010000    -1.0082090000    -0.0996370000
| 23>  H        1.3385730000    -2.1972260000    -0.3814650000
| 24>  H        2.9775920000    -3.0332210000    -0.5670820000
| 25>  H        4.6462640000     0.0852660000     1.5046530000
| 26>  H        4.9647250000     1.7638360000     1.4897910000
| 27> *
| 28>
| 29>                          ****END OF INPUT****
 Total Charge           Charge          ....    0
 Multiplicity           Mult            ....    1
 Number of Electrons    NEL             ....   62
 Basis Dimension        Dim             ....  142

MULLIKEN ATOMIC CHARGES
-----------------------
   0 C :    0.102906
   1 N :   -0.189499
   2 C :    0.038328
   3 C :   -0.079083
   4 C :   -0.010624
   5 N :   -0.052588
   6 S :   -0.244674
   7 H :    0.036896
   8 H :    0.044715
   9 H :    0.040114
  10 H :    0.019754
  11 H :    0.028029
  12 H :    0.025621
  13 H :    0.118820
  14 H :    0.121286
Sum of atomic charges:   -0.0000000

LOEWDIN ATOMIC CHARGES
----------------------
   0 C :    0.020112
   1 N :    0.008841
   2 C :   -0.004770
   3 C :   -0.107276
   4 C :   -0.112136
   5 N :    0.007076
   6 S :   -0.112690
   7 H :    0.029041
   8 H :    0.020047
   9 H :    0.027102
  10 H :    0.025667
  11 H :    0.024758
  12 H :    0.031998
  13 H :    0.068122
  14 H :    0.074108

  Mayer bond orders larger than 0.1
B(  0-C ,  1-N ) :   0.9909 B(  0-C ,  7-H ) :   0.9600 B(  0-C ,  8-H ) :   0.9259
B(  0-C ,  9-H ) :   0.9589 B(  1-N ,  2-C ) :   1.1006 B(  1-N ,  4-C ) :   1.1415
B(  2-C ,  3-C ) :   1.8793 B(  2-C , 10-H ) :   0.9418 B(  3-C , 11-H ) :   0.9527
B(  3-C , 12-H ) :   0.9344 B(  4-C ,  5-N ) :   1.2485 B(  4-C ,  6-S ) :   1.5993
B(  5-N , 13-H ) :   0.9340 B(  5-N , 14-H ) :   0.9330 B(  6-S ,  8-H ) :   0.1055

FINAL SINGLE POINT ENERGY      -664.098747479274

DIPOLE MOMENT
-------------
                                X             Y             Z
Electronic contribution:      2.26539       7.39368       1.61674
Nuclear contribution   :     -1.83427      -8.69350      -1.30548
                        -----------------------------------------
Total Dipole Moment    :      0.43113      -1.29982       0.31126
                        -----------------------------------------
Magnitude (a.u.)       :      1.40438
Magnitude (Debye)      :      3.56964

                             ****ORCA TERMINATED NORMALLY****
TOTAL RUN TIME: 0 days 0 hours 0 minutes 7 seconds 741 msec
