                         Program Version 3.0.3 - RELEASE   -
|  1> ! RI PBE def2-SVP def2-SVP/J NBO PAL2
|  2> % maxcore 2000
|  3> % output
|  4>     # printlevel mini
|  5>     print[ P_Basis ] 0
|  6>     print[ P_SCFInfo ] 1
|  7>     print[ P_SCFIterInfo ] 1
|  8>     print[ P_OrbEn ] 0
|  9>     print[ P_Cartesian ] 0
| 10> end
| 11> *xyz 0 1
| 12>  C        1.3611720000     0.2631240000     0.1026970000
| 13>  N        2.1309980000    -0.3895840000    -0.9364540000
| 14>  C        2.4785400000    -1.7731060000    -0.6842600000
| 15>  S        3.1630180000     0.5203010000    -1.8257360000
| 16>  C        4.5483750000     0.8750790000    -0.7781070000
| 17>  O        3.6415820000    -0.3075070000    -2.8904840000
| 18>  O        2.5055320000     1.7636950000    -2.0895800000
| 19>  H        1.8948120000     0.2917130000     1.0631670000
| 20>  H        0.4303660000    -0.2900530000     0.2475480000
| 21>  H        1.1150810000     1.2764590000    -0.2068340000
| 22>  H        3.0928840000    -1.8919520000     0.2193600000
| 23>  H        3.0110570000    -2.1782260000    -1.5418850000
| 24>  H        1.5579960000    -2.3450420000    -0.5468650000
| 25>  H        5.0283000000    -0.0583440000    -0.4848500000
| 26>  H        4.2090090000     1.4355490000     0.0926970000
| 27>  H        5.2413880000     1.4808040000    -1.3618260000
| 28> *
| 29>
| 30>                          ****END OF INPUT****
 Total Charge           Charge          ....    0
 Multiplicity           Mult            ....    1
 Number of Electrons    NEL             ....   66
 Basis Dimension        Dim             ....  147

MULLIKEN ATOMIC CHARGES
-----------------------
   0 C :    0.091132
   1 N :   -0.424058
   2 C :    0.089965
   3 S :    0.670996
   4 C :   -0.048937
   5 O :   -0.401857
   6 O :   -0.403513
   7 H :    0.017219
   8 H :    0.036481
   9 H :    0.059360
  10 H :    0.017624
  11 H :    0.061068
  12 H :    0.036454
  13 H :    0.055981
  14 H :    0.057810
  15 H :    0.084276
Sum of atomic charges:   -0.0000000

LOEWDIN ATOMIC CHARGES
----------------------
   0 C :   -0.003305
   1 N :   -0.240440
   2 C :   -0.003760
   3 S :    1.105688
   4 C :   -0.191059
   5 O :   -0.463325
   6 O :   -0.463995
   7 H :    0.008776
   8 H :    0.030878
   9 H :    0.032243
  10 H :    0.009083
  11 H :    0.032256
  12 H :    0.030912
  13 H :    0.034760
  14 H :    0.034707
  15 H :    0.046583

  Mayer bond orders larger than 0.1
B(  0-C ,  1-N ) :   0.9764 B(  0-C ,  7-H ) :   0.9574 B(  0-C ,  8-H ) :   0.9623
B(  0-C ,  9-H ) :   0.9571 B(  1-N ,  2-C ) :   0.9746 B(  1-N ,  3-S ) :   0.9678
B(  2-C , 10-H ) :   0.9572 B(  2-C , 11-H ) :   0.9580 B(  2-C , 12-H ) :   0.9623
B(  3-S ,  4-C ) :   0.8962 B(  3-S ,  5-O ) :   1.7542 B(  3-S ,  6-O ) :   1.7528
B(  4-C , 13-H ) :   0.9424 B(  4-C , 14-H ) :   0.9432 B(  4-C , 15-H ) :   0.9495

FINAL SINGLE POINT ENERGY      -722.126650948970

DIPOLE MOMENT
-------------
                                X             Y             Z
Electronic contribution:      0.62411       3.29897      -7.64772
Nuclear contribution   :     -0.42134      -3.82136       9.28618
                        -----------------------------------------
Total Dipole Moment    :      0.20277      -0.52239       1.63846
                        -----------------------------------------
Magnitude (a.u.)       :      1.73163
Magnitude (Debye)      :      4.40147

                             ****ORCA TERMINATED NORMALLY****
TOTAL RUN TIME: 0 days 0 hours 0 minutes 7 seconds 670 msec
