                         Program Version 3.0.3 - RELEASE   -
|  1> ! RI PBE def2-SVP def2-SVP/J NBO PAL2
|  2> % maxcore 2000
|  3> % output
|  4>     # printlevel mini
|  5>     print[ P_Basis ] 0
|  6>     print[ P_SCFInfo ] 1
|  7>     print[ P_SCFIterInfo ] 1
|  8>     print[ P_OrbEn ] 0
|  9>     print[ P_Cartesian ] 0
| 10> end
| 11> *xyz 0 1
| 12>  C        1.0214580000     0.0700600000     0.1615610000
| 13>  N        2.4647640000     0.1331250000     0.0461460000
| 14>  C        2.9717500000     1.4699780000    -0.0434180000
| 15>  S        4.7589980000     1.4554710000    -0.1082270000
| 16>  C        5.2411340000     0.7936350000     1.4588310000
| 17>  O        5.1306700000     0.5059120000    -1.1256360000
| 18>  O        5.2019070000     2.8196040000    -0.1964820000
| 19>  H        0.7077460000    -0.9744300000     0.1861540000
| 20>  H        0.4863310000     0.5739260000    -0.6579420000
| 21>  H        0.7068710000     0.5325500000     1.1007730000
| 22>  H        2.7902130000    -0.3988110000    -0.7522610000
| 23>  H        2.6799610000     2.0585100000     0.8308610000
| 24>  H        2.6891770000     2.0397900000    -0.9450190000
| 25>  H        4.7302470000    -0.1569270000     1.6041200000
| 26>  H        4.9934560000     1.5072450000     2.2431730000
| 27>  H        6.3202140000     0.6488720000     1.4025750000
| 28> *
| 29>
| 30>                          ****END OF INPUT****
 Total Charge           Charge          ....    0
 Multiplicity           Mult            ....    1
 Number of Electrons    NEL             ....   66
 Basis Dimension        Dim             ....  147

MULLIKEN ATOMIC CHARGES
-----------------------
   0 C :    0.070791
   1 N :   -0.274848
   2 C :    0.035421
   3 S :    0.573167
   4 C :   -0.051122
   5 O :   -0.426072
   6 O :   -0.417716
   7 H :    0.032412
   8 H :    0.009210
   9 H :    0.023127
  10 H :    0.119431
  11 H :    0.047936
  12 H :    0.049474
  13 H :    0.062630
  14 H :    0.061918
  15 H :    0.084243
Sum of atomic charges:   -0.0000000

LOEWDIN ATOMIC CHARGES
----------------------
   0 C :    0.000748
   1 N :   -0.113668
   2 C :   -0.113812
   3 S :    1.092359
   4 C :   -0.183455
   5 O :   -0.483138
   6 O :   -0.478187
   7 H :    0.028409
   8 H :    0.005745
   9 H :    0.023786
  10 H :    0.058014
  11 H :    0.027331
  12 H :    0.014514
  13 H :    0.037006
  14 H :    0.037282
  15 H :    0.047064

  Mayer bond orders larger than 0.1
B(  0-C ,  1-N ) :   1.0541 B(  0-C ,  7-H ) :   0.9727 B(  0-C ,  8-H ) :   0.9524
B(  0-C ,  9-H ) :   0.9697 B(  1-N ,  2-C ) :   1.0306 B(  1-N , 10-H ) :   0.9301
B(  2-C ,  3-S ) :   0.8346 B(  2-C , 11-H ) :   0.9262 B(  2-C , 12-H ) :   0.9013
B(  3-S ,  4-C ) :   0.8711 B(  3-S ,  5-O ) :   1.7024 B(  3-S ,  6-O ) :   1.7278
B(  4-C , 13-H ) :   0.9366 B(  4-C , 14-H ) :   0.9468 B(  4-C , 15-H ) :   0.9472

FINAL SINGLE POINT ENERGY      -722.126848471536

DIPOLE MOMENT
-------------
                                X             Y             Z
Electronic contribution:      7.92819       3.30231      -3.77528
Nuclear contribution   :     -9.07103      -3.82710       4.68517
                        -----------------------------------------
Total Dipole Moment    :     -1.14284      -0.52480       0.90989
                        -----------------------------------------
Magnitude (a.u.)       :      1.55222
Magnitude (Debye)      :      3.94544

                             ****ORCA TERMINATED NORMALLY****
TOTAL RUN TIME: 0 days 0 hours 0 minutes 7 seconds 320 msec
