                         Program Version 3.0.3 - RELEASE   -
|  1> ! RI PBE def2-SVP def2-SVP/J NBO PAL2
|  2> % maxcore 2000
|  3> % output
|  4>     # printlevel mini
|  5>     print[ P_Basis ] 0
|  6>     print[ P_SCFInfo ] 1
|  7>     print[ P_SCFIterInfo ] 1
|  8>     print[ P_OrbEn ] 0
|  9>     print[ P_Cartesian ] 0
| 10> end
| 11> *xyz 0 1
| 12>  C        2.7314370000    -0.3301820000     1.3705580000
| 13>  N        2.4787200000    -0.3847260000    -0.0471070000
| 14>  C        3.2720500000     0.1192000000    -1.0059160000
| 15>  S        2.9638650000    -0.0951050000    -2.6188900000
| 16>  N        4.3837600000     0.7806360000    -0.5078950000
| 17>  C        5.0184860000     1.8367440000    -1.2386460000
| 18>  C        4.2837320000     2.1350700000     0.0165950000
| 19>  H        2.1392070000    -1.1019440000     1.8613570000
| 20>  H        2.4611950000     0.6377090000     1.8063710000
| 21>  H        3.7877090000    -0.5147590000     1.5727170000
| 22>  H        1.6786770000    -0.8884340000    -0.3891880000
| 23>  H        4.5545880000     2.1158270000    -2.1792890000
| 24>  H        6.1022740000     1.8136040000    -1.2297390000
| 25>  H        3.3224330000     2.6299420000    -0.0845760000
| 26>  H        4.8174680000     2.3282160000     0.9410370000
| 27> *
| 28>
| 29>                          ****END OF INPUT****
 Total Charge           Charge          ....    0
 Multiplicity           Mult            ....    1
 Number of Electrons    NEL             ....   62
 Basis Dimension        Dim             ....  142

MULLIKEN ATOMIC CHARGES
-----------------------
   0 C :    0.079735
   1 N :   -0.103552
   2 C :   -0.011135
   3 S :   -0.254699
   4 N :   -0.230817
   5 C :    0.070564
   6 C :    0.033464
   7 H :    0.035706
   8 H :    0.034030
   9 H :    0.048441
  10 H :    0.119534
  11 H :    0.039009
  12 H :    0.047620
  13 H :    0.048889
  14 H :    0.043211
Sum of atomic charges:    0.0000000

LOEWDIN ATOMIC CHARGES
----------------------
   0 C :    0.008219
   1 N :    0.018578
   2 C :   -0.133864
   3 S :   -0.125540
   4 N :   -0.075126
   5 C :    0.026749
   6 C :    0.024217
   7 H :    0.033369
   8 H :    0.022377
   9 H :    0.033269
  10 H :    0.076021
  11 H :    0.016254
  12 H :    0.028276
  13 H :    0.024630
  14 H :    0.022571

  Mayer bond orders larger than 0.1
B(  0-C ,  1-N ) :   1.0209 B(  0-C ,  7-H ) :   0.9684 B(  0-C ,  8-H ) :   0.9584
B(  0-C ,  9-H ) :   0.9586 B(  1-N ,  2-C ) :   1.2731 B(  1-N ,  3-S ) :   0.1039
B(  1-N , 10-H ) :   0.9257 B(  2-C ,  3-S ) :   1.6068 B(  2-C ,  4-N ) :   1.1058
B(  4-N ,  5-C ) :   0.9675 B(  4-N ,  6-C ) :   0.9138 B(  5-C ,  6-C ) :   1.0830
B(  5-C , 11-H ) :   0.9201 B(  5-C , 12-H ) :   0.9481 B(  6-C , 13-H ) :   0.9335
B(  6-C , 14-H ) :   0.9480

FINAL SINGLE POINT ENERGY      -664.072957476216

DIPOLE MOMENT
-------------
                                X             Y             Z
Electronic contribution:     -1.09760      -2.64034      -7.00316
Nuclear contribution   :      0.99000       3.06304       8.65569
                        -----------------------------------------
Total Dipole Moment    :     -0.10760       0.42270       1.65253
                        -----------------------------------------
Magnitude (a.u.)       :      1.70913
Magnitude (Debye)      :      4.34425

                             ****ORCA TERMINATED NORMALLY****
TOTAL RUN TIME: 0 days 0 hours 0 minutes 7 seconds 68 msec
