                         Program Version 3.0.3 - RELEASE   -
|  1> ! RI PBE def2-SVP def2-SVP/J NBO PAL2
|  2> % maxcore 2000
|  3> % output
|  4>     # printlevel mini
|  5>     print[ P_Basis ] 0
|  6>     print[ P_SCFInfo ] 1
|  7>     print[ P_SCFIterInfo ] 1
|  8>     print[ P_OrbEn ] 0
|  9>     print[ P_Cartesian ] 0
| 10> end
| 11> *xyz 0 1
| 12>  C        3.1542900000    -2.6462290000    -2.5930460000
| 13>  N        3.0035730000    -1.2429710000    -2.2558240000
| 14>  C        3.6702550000    -0.6302090000    -1.2318120000
| 15>  S        2.8877430000     0.4874100000    -0.2746370000
| 16>  N        4.9690170000    -0.9817300000    -1.0701790000
| 17>  C        5.6971480000    -0.5406180000     0.0965050000
| 18>  C        5.7992140000    -1.3824690000    -2.1882090000
| 19>  H        2.1671630000    -3.1065470000    -2.6597630000
| 20>  H        3.7148530000    -3.1663120000    -1.8144440000
| 21>  H        3.6641240000    -2.8010030000    -3.5484900000
| 22>  H        2.0685700000    -0.8770140000    -2.3280860000
| 23>  H        5.0366840000    -0.5292020000     0.9605110000
| 24>  H        6.0981100000     0.4705980000    -0.0371220000
| 25>  H        6.5248300000    -1.2321760000     0.2712940000
| 26>  H        5.2580840000    -1.2614780000    -3.1237760000
| 27>  H        6.1402370000    -2.4191530000    -2.1016330000
| 28>  H        6.6815930000    -0.7365080000    -2.2250880000
| 29> *
| 30>
| 31>                          ****END OF INPUT****
 Total Charge           Charge          ....    0
 Multiplicity           Mult            ....    1
 Number of Electrons    NEL             ....   64
 Basis Dimension        Dim             ....  152

MULLIKEN ATOMIC CHARGES
-----------------------
   0 C :    0.068917
   1 N :   -0.136026
   2 C :   -0.005023
   3 S :   -0.284769
   4 N :   -0.267879
   5 C :    0.112929
   6 C :    0.089801
   7 H :    0.038095
   8 H :    0.038678
   9 H :    0.024662
  10 H :    0.113546
  11 H :    0.047125
  12 H :    0.031920
  13 H :    0.018979
  14 H :    0.047154
  15 H :    0.030439
  16 H :    0.031453
Sum of atomic charges:   -0.0000000

LOEWDIN ATOMIC CHARGES
----------------------
   0 C :    0.007085
   1 N :   -0.023891
   2 C :   -0.126327
   3 S :   -0.151463
   4 N :   -0.035528
   5 C :    0.012940
   6 C :    0.018320
   7 H :    0.031825
   8 H :    0.028516
   9 H :    0.016717
  10 H :    0.067384
  11 H :    0.027539
  12 H :    0.022954
  13 H :    0.021046
  14 H :    0.032899
  15 H :    0.021652
  16 H :    0.028329

  Mayer bond orders larger than 0.1
B(  0-C ,  1-N ) :   1.0169 B(  0-C ,  7-H ) :   0.9674 B(  0-C ,  8-H ) :   0.9631
B(  0-C ,  9-H ) :   0.9616 B(  1-N ,  2-C ) :   1.2083 B(  1-N , 10-H ) :   0.9234
B(  2-C ,  3-S ) :   1.5669 B(  2-C ,  4-N ) :   1.2118 B(  4-N ,  5-C ) :   1.0026
B(  4-N ,  6-C ) :   0.9960 B(  5-C , 11-H ) :   0.9505 B(  5-C , 12-H ) :   0.9584
B(  5-C , 13-H ) :   0.9582 B(  6-C , 14-H ) :   0.9601 B(  6-C , 15-H ) :   0.9638
B(  6-C , 16-H ) :   0.9548

FINAL SINGLE POINT ENERGY      -665.297679317315

DIPOLE MOMENT
-------------
                                X             Y             Z
Electronic contribution:     -6.14008       5.98278       3.31803
Nuclear contribution   :      6.99132      -7.28842      -4.24612
                        -----------------------------------------
Total Dipole Moment    :      0.85124      -1.30565      -0.92808
                        -----------------------------------------
Magnitude (a.u.)       :      1.81402
Magnitude (Debye)      :      4.61087

                             ****ORCA TERMINATED NORMALLY****
TOTAL RUN TIME: 0 days 0 hours 0 minutes 7 seconds 578 msec
