                         Program Version 3.0.3 - RELEASE   -
|  1> ! RI PBE def2-SVP def2-SVP/J NBO PAL2
|  2> % maxcore 2000
|  3> % output
|  4>     # printlevel mini
|  5>     print[ P_Basis ] 0
|  6>     print[ P_SCFInfo ] 1
|  7>     print[ P_SCFIterInfo ] 1
|  8>     print[ P_OrbEn ] 0
|  9>     print[ P_Cartesian ] 0
| 10> end
| 11> *xyz 0 1
| 12>  C        2.4728720000    -1.2133010000    -1.1658450000
| 13>  N        3.3957880000    -0.9767340000    -0.0827760000
| 14>  C        3.6970730000     0.2607660000     0.3512720000
| 15>  S        3.0217930000     1.6429050000    -0.2725100000
| 16>  N        4.6114550000     0.3407330000     1.3646050000
| 17>  C        5.1173440000    -0.6809150000     2.1439990000
| 18>  C        6.1208080000    -0.5502780000     3.0086960000
| 19>  H        2.3437730000    -2.2903690000    -1.2760780000
| 20>  H        2.8356590000    -0.7885810000    -2.1059000000
| 21>  H        1.5094390000    -0.7548730000    -0.9430170000
| 22>  H        4.0201790000    -1.7279650000     0.1561510000
| 23>  H        4.8714680000     1.2892610000     1.5853670000
| 24>  H        4.6025970000    -1.6308600000     2.0495780000
| 25>  H        6.6499820000     0.3865140000     3.1400710000
| 26>  H        6.4219600000    -1.3899240000     3.6180960000
| 27> *
| 28>
| 29>                          ****END OF INPUT****
 Total Charge           Charge          ....    0
 Multiplicity           Mult            ....    1
 Number of Electrons    NEL             ....   62
 Basis Dimension        Dim             ....  142

MULLIKEN ATOMIC CHARGES
-----------------------
   0 C :    0.096261
   1 N :   -0.140695
   2 C :   -0.024077
   3 S :   -0.268209
   4 N :   -0.018023
   5 C :    0.009617
   6 C :   -0.069016
   7 H :    0.022734
   8 H :    0.039823
   9 H :    0.049333
  10 H :    0.118417
  11 H :    0.119997
  12 H :    0.008384
  13 H :    0.023374
  14 H :    0.032080
Sum of atomic charges:    0.0000000

LOEWDIN ATOMIC CHARGES
----------------------
   0 C :    0.010307
   1 N :    0.003053
   2 C :   -0.121793
   3 S :   -0.133107
   4 N :    0.040244
   5 C :   -0.004859
   6 C :   -0.110808
   7 H :    0.025790
   8 H :    0.025521
   9 H :    0.031935
  10 H :    0.068630
  11 H :    0.083460
  12 H :    0.023889
  13 H :    0.025498
  14 H :    0.032240

  Mayer bond orders larger than 0.1
B(  0-C ,  1-N ) :   1.0183 B(  0-C ,  7-H ) :   0.9628 B(  0-C ,  8-H ) :   0.9594
B(  0-C ,  9-H ) :   0.9600 B(  1-N ,  2-C ) :   1.2675 B(  1-N , 10-H ) :   0.9179
B(  2-C ,  3-S ) :   1.5719 B(  2-C ,  4-N ) :   1.1634 B(  4-N ,  5-C ) :   1.1318
B(  4-N , 11-H ) :   0.9080 B(  5-C ,  6-C ) :   1.8922 B(  5-C , 12-H ) :   0.9377
B(  6-C , 13-H ) :   0.9557 B(  6-C , 14-H ) :   0.9409

FINAL SINGLE POINT ENERGY      -664.100935026024

DIPOLE MOMENT
-------------
                                X             Y             Z
Electronic contribution:     -1.53509       5.77506      -1.19755
Nuclear contribution   :      2.04891      -7.21220       1.49804
                        -----------------------------------------
Total Dipole Moment    :      0.51383      -1.43714       0.30049
                        -----------------------------------------
Magnitude (a.u.)       :      1.55553
Magnitude (Debye)      :      3.95385

                             ****ORCA TERMINATED NORMALLY****
TOTAL RUN TIME: 0 days 0 hours 0 minutes 7 seconds 91 msec
