                         Program Version 3.0.3 - RELEASE   -
|  1> ! RI PBE def2-SVP def2-SVP/J NBO PAL2
|  2> % maxcore 2000
|  3> % output
|  4>     # printlevel mini
|  5>     print[ P_Basis ] 0
|  6>     print[ P_SCFInfo ] 1
|  7>     print[ P_SCFIterInfo ] 1
|  8>     print[ P_OrbEn ] 0
|  9>     print[ P_Cartesian ] 0
| 10> end
| 11> *xyz 0 1
| 12>  C        3.0679260000     0.3858340000     1.4391140000
| 13>  N        3.0032690000     0.0015130000     0.0385610000
| 14>  S        3.2019630000     1.1347490000    -1.1244540000
| 15>  O        2.4268720000     0.7017650000    -2.2488760000
| 16>  O        3.0217390000     2.4442890000    -0.5706770000
| 17>  C        4.8999730000     1.0251150000    -1.5550980000
| 18>  C        5.7209050000     0.0755220000    -1.1438180000
| 19>  H        3.0311440000    -0.5212040000     2.0436740000
| 20>  H        2.2574740000     1.0560850000     1.7349880000
| 21>  H        4.0164550000     0.8850280000     1.6363290000
| 22>  H        2.2591180000    -0.6291960000    -0.2234880000
| 23>  H        5.2016160000     1.8414870000    -2.2032860000
| 24>  H        5.3765130000    -0.7199520000    -0.4939150000
| 25>  H        6.7599330000     0.0712650000    -1.4525620000
| 26> *
| 27>
| 28>                          ****END OF INPUT****
 Total Charge           Charge          ....    0
 Multiplicity           Mult            ....    1
 Number of Electrons    NEL             ....   64
 Basis Dimension        Dim             ....  137

MULLIKEN ATOMIC CHARGES
-----------------------
   0 C :    0.083073
   1 N :   -0.329088
   2 S :    0.705580
   3 O :   -0.406194
   4 O :   -0.402640
   5 C :   -0.081255
   6 C :    0.006010
   7 H :    0.037847
   8 H :    0.049197
   9 H :    0.040976
  10 H :    0.143025
  11 H :    0.062247
  12 H :    0.043302
  13 H :    0.047921
Sum of atomic charges:    0.0000000

LOEWDIN ATOMIC CHARGES
----------------------
   0 C :   -0.005846
   1 N :   -0.217439
   2 S :    1.098117
   3 O :   -0.461102
   4 O :   -0.455637
   5 C :   -0.175529
   6 C :   -0.039493
   7 H :    0.032051
   8 H :    0.021871
   9 H :    0.030883
  10 H :    0.066826
  11 H :    0.039446
  12 H :    0.028600
  13 H :    0.037251

  Mayer bond orders larger than 0.1
B(  0-C ,  1-N ) :   0.9835 B(  0-C ,  7-H ) :   0.9654 B(  0-C ,  8-H ) :   0.9710
B(  0-C ,  9-H ) :   0.9702 B(  1-N ,  2-S ) :   1.0060 B(  1-N , 10-H ) :   0.9209
B(  2-S ,  3-O ) :   1.7529 B(  2-S ,  4-O ) :   1.7395 B(  2-S ,  5-C ) :   0.8909
B(  5-C ,  6-C ) :   1.9799 B(  5-C , 11-H ) :   0.9359 B(  6-C , 12-H ) :   0.9292
B(  6-C , 13-H ) :   0.9391

FINAL SINGLE POINT ENERGY      -720.903249332500

DIPOLE MOMENT
-------------
                                X             Y             Z
Electronic contribution:     -3.32021       2.96002      -5.21649
Nuclear contribution   :      4.03682      -3.90852       6.10655
                        -----------------------------------------
Total Dipole Moment    :      0.71661      -0.94851       0.89005
                        -----------------------------------------
Magnitude (a.u.)       :      1.48506
Magnitude (Debye)      :      3.77472

                             ****ORCA TERMINATED NORMALLY****
TOTAL RUN TIME: 0 days 0 hours 0 minutes 6 seconds 233 msec
