                         Program Version 3.0.3 - RELEASE   -
|  1> ! RI PBE def2-SVP def2-SVP/J NBO PAL2
|  2> % maxcore 2000
|  3> % output
|  4>     # printlevel mini
|  5>     print[ P_Basis ] 0
|  6>     print[ P_SCFInfo ] 1
|  7>     print[ P_SCFIterInfo ] 1
|  8>     print[ P_OrbEn ] 0
|  9>     print[ P_Cartesian ] 0
| 10> end
| 11> *xyz 0 1
| 12>  C        1.0184400000    -0.0792620000     0.0637980000
| 13>  N        2.4236740000     0.0002060000     0.4180730000
| 14>  S        3.0046510000    -0.8280170000     1.6810800000
| 15>  O        4.3997960000    -0.5532680000     1.7469720000
| 16>  O        2.1278860000    -0.6213320000     2.7833370000
| 17>  C        2.8373180000    -2.4801320000     1.2357230000
| 18>  C        2.7047930000    -3.6271950000     0.9055670000
| 19>  H        0.7810920000     0.7545770000    -0.5970150000
| 20>  H        0.4246290000     0.0211970000     0.9707690000
| 21>  H        0.7588120000    -1.0194130000    -0.4343670000
| 22>  H        3.0872830000     0.0374480000    -0.3433940000
| 23>  H        2.5964140000    -4.6501100000     0.6265680000
| 24> *
| 25>
| 26>                          ****END OF INPUT****
 Total Charge           Charge          ....    0
 Multiplicity           Mult            ....    1
 Number of Electrons    NEL             ....   62
 Basis Dimension        Dim             ....  127

MULLIKEN ATOMIC CHARGES
-----------------------
   0 C :    0.063473
   1 N :   -0.282402
   2 S :    0.704666
   3 O :   -0.368966
   4 O :   -0.365590
   5 C :    0.418332
   6 C :   -0.487992
   7 H :    0.049737
   8 H :    0.062708
   9 H :    0.040610
  10 H :    0.143063
  11 H :    0.022360
Sum of atomic charges:   -0.0000000

LOEWDIN ATOMIC CHARGES
----------------------
   0 C :   -0.005623
   1 N :   -0.189003
   2 S :    1.083309
   3 O :   -0.428077
   4 O :   -0.422732
   5 C :   -0.218311
   6 C :   -0.028314
   7 H :    0.036731
   8 H :    0.037858
   9 H :    0.018926
  10 H :    0.070557
  11 H :    0.044679

  Mayer bond orders larger than 0.1
B(  0-C ,  1-N ) :   0.9839 B(  0-C ,  7-H ) :   0.9671 B(  0-C ,  8-H ) :   0.9614
B(  0-C ,  9-H ) :   0.9649 B(  1-N ,  2-S ) :   1.0537 B(  1-N , 10-H ) :   0.9189
B(  2-S ,  3-O ) :   1.8071 B(  2-S ,  4-O ) :   1.7978 B(  2-S ,  5-C ) :   0.8523
B(  5-C ,  6-C ) :   2.3703 B(  5-C , 11-H ) :  -0.1141 B(  6-C , 11-H ) :   1.1045

FINAL SINGLE POINT ENERGY      -719.646800171114

DIPOLE MOMENT
-------------
                                X             Y             Z
Electronic contribution:      4.70661      -0.81573       4.43753
Nuclear contribution   :     -5.46589       0.36045      -6.03683
                        -----------------------------------------
Total Dipole Moment    :     -0.75928      -0.45529      -1.59930
                        -----------------------------------------
Magnitude (a.u.)       :      1.82799
Magnitude (Debye)      :      4.64638

                             ****ORCA TERMINATED NORMALLY****
TOTAL RUN TIME: 0 days 0 hours 0 minutes 6 seconds 489 msec
