                         Program Version 3.0.3 - RELEASE   -
|  1> ! RI PBE def2-SVP def2-SVP/J NBO PAL2
|  2> % maxcore 2000
|  3> % output
|  4>     # printlevel mini
|  5>     print[ P_Basis ] 0
|  6>     print[ P_SCFInfo ] 1
|  7>     print[ P_SCFIterInfo ] 1
|  8>     print[ P_OrbEn ] 0
|  9>     print[ P_Cartesian ] 0
| 10> end
| 11> *xyz 0 1
| 12>  C        2.3061460000    -1.3070400000     0.4985880000
| 13>  O        2.0884660000     0.0420110000     0.1509860000
| 14>  C        2.7902090000     0.9667810000     0.8214260000
| 15>  C        2.7033330000     2.3129060000     0.6145890000
| 16>  C        3.5654830000     3.0375280000     1.4730290000
| 17>  C        4.2879500000     2.2464820000     2.3109050000
| 18>  S        3.9291780000     0.5873590000     2.0687650000
| 19>  H        1.6577020000    -1.9004130000    -0.1431390000
| 20>  H        2.0474440000    -1.4895290000     1.5474470000
| 21>  H        3.3497060000    -1.5936610000     0.3277910000
| 22>  H        2.0454760000     2.7486520000    -0.1242400000
| 23>  H        3.6453460000     4.1167830000     1.4667710000
| 24>  H        5.0109520000     2.5329410000     3.0580810000
| 25> *
| 26>
| 27>                          ****END OF INPUT****
 Total Charge           Charge          ....    0
 Multiplicity           Mult            ....    1
 Number of Electrons    NEL             ....   60
 Basis Dimension        Dim             ....  132

MULLIKEN ATOMIC CHARGES
-----------------------
   0 C :    0.135294
   1 O :   -0.241869
   2 C :    0.012128
   3 C :    0.011098
   4 C :    0.011377
   5 C :   -0.094606
   6 S :    0.036596
   7 H :    0.049605
   8 H :    0.035484
   9 H :    0.035159
  10 H :   -0.015079
  11 H :   -0.002594
  12 H :    0.027404
Sum of atomic charges:   -0.0000000

LOEWDIN ATOMIC CHARGES
----------------------
   0 C :    0.054067
   1 O :   -0.066596
   2 C :   -0.128632
   3 C :   -0.116097
   4 C :   -0.064938
   5 C :   -0.227799
   6 S :    0.400151
   7 H :    0.032495
   8 H :    0.015083
   9 H :    0.014965
  10 H :    0.032372
  11 H :    0.031484
  12 H :    0.023446

  Mayer bond orders larger than 0.1
B(  0-C ,  1-O ) :   0.9713 B(  0-C ,  7-H ) :   0.9762 B(  0-C ,  8-H ) :   0.9562
B(  0-C ,  9-H ) :   0.9563 B(  1-O ,  2-C ) :   1.1565 B(  2-C ,  3-C ) :   1.4889
B(  2-C ,  6-S ) :   1.1245 B(  3-C ,  4-C ) :   1.2541 B(  3-C , 10-H ) :   1.0012
B(  4-C ,  5-C ) :   1.5573 B(  4-C , 11-H ) :   0.9893 B(  5-C ,  6-S ) :   1.1149
B(  5-C , 12-H ) :   0.9702

FINAL SINGLE POINT ENERGY      -666.702356783880

DIPOLE MOMENT
-------------
                                X             Y             Z
Electronic contribution:      1.39198       0.85103       1.40932
Nuclear contribution   :     -1.39035      -1.33947      -1.36722
                        -----------------------------------------
Total Dipole Moment    :      0.00164      -0.48844       0.04210
                        -----------------------------------------
Magnitude (a.u.)       :      0.49025
Magnitude (Debye)      :      1.24612

                             ****ORCA TERMINATED NORMALLY****
TOTAL RUN TIME: 0 days 0 hours 0 minutes 6 seconds 250 msec
