                         Program Version 3.0.3 - RELEASE   -
|  1> ! RI PBE def2-SVP def2-SVP/J NBO PAL2
|  2> % maxcore 2000
|  3> % output
|  4>     # printlevel mini
|  5>     print[ P_Basis ] 0
|  6>     print[ P_SCFInfo ] 1
|  7>     print[ P_SCFIterInfo ] 1
|  8>     print[ P_OrbEn ] 0
|  9>     print[ P_Cartesian ] 0
| 10> end
| 11> *xyz 0 1
| 12>  C        1.9468430000    -0.5282790000     1.1633720000
| 13>  O        2.6551100000     0.1170590000     0.1220180000
| 14>  C        3.1781880000    -0.6707970000    -0.8151060000
| 15>  C        3.8970870000    -0.2448490000    -1.9022430000
| 16>  C        4.2891210000    -1.3539090000    -2.6736470000
| 17>  N        3.9284740000    -2.5474050000    -2.2587760000
| 18>  S        3.0676740000    -2.3894920000    -0.8681070000
| 19>  H        1.5933240000     0.2552210000     1.8299960000
| 20>  H        2.6033630000    -1.2102650000     1.7136610000
| 21>  H        1.0921500000    -1.0841140000     0.7640040000
| 22>  H        4.1181070000     0.7906250000    -2.1160340000
| 23>  H        4.8694490000    -1.2866850000    -3.5880580000
| 24> *
| 25>
| 26>                          ****END OF INPUT****
 Total Charge           Charge          ....    0
 Multiplicity           Mult            ....    1
 Number of Electrons    NEL             ....   60
 Basis Dimension        Dim             ....  127

MULLIKEN ATOMIC CHARGES
-----------------------
   0 C :    0.127585
   1 O :   -0.228037
   2 C :    0.012812
   3 C :   -0.049667
   4 C :    0.081529
   5 N :   -0.299912
   6 S :    0.206933
   7 H :    0.054903
   8 H :    0.043299
   9 H :    0.043262
  10 H :   -0.007117
  11 H :    0.014410
Sum of atomic charges:   -0.0000000

LOEWDIN ATOMIC CHARGES
----------------------
   0 C :    0.057728
   1 O :   -0.055001
   2 C :   -0.136031
   3 C :   -0.135660
   4 C :   -0.030316
   5 N :   -0.289269
   6 S :    0.454987
   7 H :    0.034703
   8 H :    0.018854
   9 H :    0.018856
  10 H :    0.036126
  11 H :    0.025024

  Mayer bond orders larger than 0.1
B(  0-C ,  1-O ) :   0.9592 B(  0-C ,  7-H ) :   0.9761 B(  0-C ,  8-H ) :   0.9578
B(  0-C ,  9-H ) :   0.9577 B(  1-O ,  2-C ) :   1.1810 B(  2-C ,  3-C ) :   1.4650
B(  2-C ,  5-N ) :   0.1574 B(  2-C ,  6-S ) :   1.1178 B(  3-C ,  4-C ) :   1.2495
B(  3-C , 10-H ) :   0.9977 B(  4-C ,  5-N ) :   1.5936 B(  4-C , 11-H ) :   0.9718
B(  5-N ,  6-S ) :   1.1689

FINAL SINGLE POINT ENERGY      -682.723676253044

DIPOLE MOMENT
-------------
                                X             Y             Z
Electronic contribution:      1.21312      -3.01785      -2.33582
Nuclear contribution   :     -1.68422       3.63847       3.16517
                        -----------------------------------------
Total Dipole Moment    :     -0.47110       0.62062       0.82935
                        -----------------------------------------
Magnitude (a.u.)       :      1.13794
Magnitude (Debye)      :      2.89242

                             ****ORCA TERMINATED NORMALLY****
TOTAL RUN TIME: 0 days 0 hours 0 minutes 6 seconds 224 msec
