                         Program Version 3.0.3 - RELEASE   -
|  1> ! RI PBE def2-SVP def2-SVP/J NBO PAL2
|  2> % maxcore 2000
|  3> % output
|  4>     # printlevel mini
|  5>     print[ P_Basis ] 0
|  6>     print[ P_SCFInfo ] 1
|  7>     print[ P_SCFIterInfo ] 1
|  8>     print[ P_OrbEn ] 0
|  9>     print[ P_Cartesian ] 0
| 10> end
| 11> *xyz 0 1
| 12>  C        1.0367840000    -0.0458740000    -0.0558100000
| 13>  O        2.3208410000     0.0978670000     0.5020250000
| 14>  C        2.9786720000    -1.0401010000     0.8145430000
| 15>  C        4.2329140000    -0.9985770000     1.3620090000
| 16>  S        4.8255650000    -2.5677230000     1.6553850000
| 17>  C        3.4132090000    -3.2951680000     1.0537820000
| 18>  C        2.5027210000    -2.3687580000     0.6354950000
| 19>  H        0.6676050000     0.9619100000    -0.2391210000
| 20>  H        0.3547530000    -0.5579260000     0.6321470000
| 21>  H        1.0696430000    -0.5936730000    -1.0042240000
| 22>  H        4.8129060000    -0.1204150000     1.5963970000
| 23>  H        3.3164970000    -4.3697470000     1.0349670000
| 24>  H        1.5399690000    -2.6305170000     0.2203060000
| 25> *
| 26>
| 27>                          ****END OF INPUT****
 Total Charge           Charge          ....    0
 Multiplicity           Mult            ....    1
 Number of Electrons    NEL             ....   60
 Basis Dimension        Dim             ....  132

MULLIKEN ATOMIC CHARGES
-----------------------
   0 C :    0.139105
   1 O :   -0.268384
   2 C :    0.178926
   3 C :   -0.145998
   4 S :    0.096942
   5 C :   -0.100395
   6 C :   -0.031137
   7 H :    0.039461
   8 H :    0.028652
   9 H :    0.027554
  10 H :    0.017515
  11 H :    0.034464
  12 H :   -0.016705
Sum of atomic charges:   -0.0000000

LOEWDIN ATOMIC CHARGES
----------------------
   0 C :    0.061541
   1 O :   -0.076192
   2 C :   -0.013672
   3 C :   -0.248056
   4 S :    0.453671
   5 C :   -0.207377
   6 C :   -0.109964
   7 H :    0.028520
   8 H :    0.014648
   9 H :    0.014674
  10 H :    0.026987
  11 H :    0.025940
  12 H :    0.029279

  Mayer bond orders larger than 0.1
B(  0-C ,  1-O ) :   0.9872 B(  0-C ,  7-H ) :   0.9734 B(  0-C ,  8-H ) :   0.9598
B(  0-C ,  9-H ) :   0.9594 B(  1-O ,  2-C ) :   1.1531 B(  2-C ,  3-C ) :   1.4916
B(  2-C ,  6-C ) :   1.2327 B(  3-C ,  4-S ) :   1.1496 B(  3-C ,  5-C ) :   0.1044
B(  3-C , 10-H ) :   0.9678 B(  4-S ,  5-C ) :   1.2139 B(  5-C ,  6-C ) :   1.4905
B(  5-C , 11-H ) :   0.9635 B(  6-C , 12-H ) :   0.9907

FINAL SINGLE POINT ENERGY      -666.703080391046

DIPOLE MOMENT
-------------
                                X             Y             Z
Electronic contribution:      6.85628      -2.25182       3.04677
Nuclear contribution   :     -7.45702       2.12900      -3.30565
                        -----------------------------------------
Total Dipole Moment    :     -0.60075      -0.12282      -0.25888
                        -----------------------------------------
Magnitude (a.u.)       :      0.66558
Magnitude (Debye)      :      1.69178

                             ****ORCA TERMINATED NORMALLY****
TOTAL RUN TIME: 0 days 0 hours 0 minutes 6 seconds 490 msec
