                         Program Version 3.0.3 - RELEASE   -
|  1> ! RI PBE def2-SVP def2-SVP/J NBO PAL2
|  2> % maxcore 2000
|  3> % output
|  4>     # printlevel mini
|  5>     print[ P_Basis ] 0
|  6>     print[ P_SCFInfo ] 1
|  7>     print[ P_SCFIterInfo ] 1
|  8>     print[ P_OrbEn ] 0
|  9>     print[ P_Cartesian ] 0
| 10> end
| 11> *xyz 0 1
| 12>  C        2.6628080000    -1.2355520000     0.7727620000
| 13>  O        2.3145100000     0.0522020000     0.3147520000
| 14>  C        3.0100270000     1.0831880000     0.8115460000
| 15>  N        2.6897260000     2.2809370000     0.3889500000
| 16>  S        3.6535250000     3.3805810000     1.1154960000
| 17>  C        4.5348680000     2.2605290000     2.0261680000
| 18>  C        4.0703420000     1.0052510000     1.7600460000
| 19>  H        1.9966800000    -1.9289040000     0.2629810000
| 20>  H        2.5184630000    -1.3280480000     1.8542180000
| 21>  H        3.6994600000    -1.4826870000     0.5213320000
| 22>  H        5.3308130000     2.5468360000     2.6982200000
| 23>  H        4.4558890000     0.1010570000     2.2064290000
| 24> *
| 25>
| 26>                          ****END OF INPUT****
 Total Charge           Charge          ....    0
 Multiplicity           Mult            ....    1
 Number of Electrons    NEL             ....   60
 Basis Dimension        Dim             ....  127

MULLIKEN ATOMIC CHARGES
-----------------------
   0 C :    0.134217
   1 O :   -0.237124
   2 C :    0.174474
   3 N :   -0.302140
   4 S :    0.269793
   5 C :   -0.082001
   6 C :   -0.092745
   7 H :    0.046674
   8 H :    0.032171
   9 H :    0.029535
  10 H :    0.035907
  11 H :   -0.008760
Sum of atomic charges:   -0.0000000

LOEWDIN ATOMIC CHARGES
----------------------
   0 C :    0.063843
   1 O :   -0.057113
   2 C :   -0.013729
   3 N :   -0.299575
   4 S :    0.511376
   5 C :   -0.198290
   6 C :   -0.131867
   7 H :    0.032028
   8 H :    0.016485
   9 H :    0.016206
  10 H :    0.029101
  11 H :    0.031535

  Mayer bond orders larger than 0.1
B(  0-C ,  1-O ) :   0.9811 B(  0-C ,  7-H ) :   0.9738 B(  0-C ,  8-H ) :   0.9616
B(  0-C ,  9-H ) :   0.9609 B(  1-O ,  2-C ) :   1.1888 B(  2-C ,  3-N ) :   1.5455
B(  2-C ,  6-C ) :   1.1794 B(  3-N ,  4-S ) :   1.1797 B(  3-N ,  5-C ) :   0.1417
B(  4-S ,  5-C ) :   1.2135 B(  4-S ,  6-C ) :   0.1064 B(  5-C ,  6-C ) :   1.5139
B(  5-C , 10-H ) :   0.9566 B(  6-C , 11-H ) :   0.9886

FINAL SINGLE POINT ENERGY      -682.727830353540

DIPOLE MOMENT
-------------
                                X             Y             Z
Electronic contribution:     -0.53981       8.41713      -1.45651
Nuclear contribution   :      1.32011      -9.22187       2.23877
                        -----------------------------------------
Total Dipole Moment    :      0.78030      -0.80474       0.78226
                        -----------------------------------------
Magnitude (a.u.)       :      1.36690
Magnitude (Debye)      :      3.47437

                             ****ORCA TERMINATED NORMALLY****
TOTAL RUN TIME: 0 days 0 hours 0 minutes 6 seconds 165 msec
