                         Program Version 3.0.3 - RELEASE   -
|  1> ! RI PBE def2-SVP def2-SVP/J NBO PAL2
|  2> % maxcore 2000
|  3> % output
|  4>     # printlevel mini
|  5>     print[ P_Basis ] 0
|  6>     print[ P_SCFInfo ] 1
|  7>     print[ P_SCFIterInfo ] 1
|  8>     print[ P_OrbEn ] 0
|  9>     print[ P_Cartesian ] 0
| 10> end
| 11> *xyz 0 1
| 12>  C        3.1524430000    -1.1926880000     0.4178200000
| 13>  O        2.6270670000     0.1107740000     0.2815940000
| 14>  C        3.1847430000     0.8989580000    -0.6430980000
| 15>  C        2.8134800000     2.1834980000    -0.9177460000
| 16>  N        3.5249550000     2.7950480000    -1.9037170000
| 17>  C        4.4298770000     2.0122340000    -2.3897490000
| 18>  S        4.4944090000     0.4412230000    -1.6787990000
| 19>  H        2.5790780000    -1.6748830000     1.2069180000
| 20>  H        4.2099040000    -1.1610320000     0.7014570000
| 21>  H        3.0412360000    -1.7590120000    -0.5130880000
| 22>  H        2.0160930000     2.7044360000    -0.4063630000
| 23>  H        5.1158040000     2.2800450000    -3.1819290000
| 24> *
| 25>
| 26>                          ****END OF INPUT****
 Total Charge           Charge          ....    0
 Multiplicity           Mult            ....    1
 Number of Electrons    NEL             ....   60
 Basis Dimension        Dim             ....  127

MULLIKEN ATOMIC CHARGES
-----------------------
   0 C :    0.130785
   1 O :   -0.238968
   2 C :    0.005233
   3 C :    0.030731
   4 N :   -0.100678
   5 C :   -0.032946
   6 S :    0.028494
   7 H :    0.053689
   8 H :    0.039171
   9 H :    0.042005
  10 H :   -0.003034
  11 H :    0.045518
Sum of atomic charges:   -0.0000000

LOEWDIN ATOMIC CHARGES
----------------------
   0 C :    0.057318
   1 O :   -0.061206
   2 C :   -0.143647
   3 C :   -0.089727
   4 N :   -0.078781
   5 C :   -0.176579
   6 S :    0.378781
   7 H :    0.033875
   8 H :    0.017378
   9 H :    0.017695
  10 H :    0.026877
  11 H :    0.018017

  Mayer bond orders larger than 0.1
B(  0-C ,  1-O ) :   0.9620 B(  0-C ,  7-H ) :   0.9755 B(  0-C ,  8-H ) :   0.9577
B(  0-C ,  9-H ) :   0.9581 B(  1-O ,  2-C ) :   1.1622 B(  2-C ,  3-C ) :   1.4788
B(  2-C ,  6-S ) :   1.1245 B(  3-C ,  4-N ) :   1.3626 B(  3-C , 10-H ) :   0.9918
B(  4-N ,  5-C ) :   1.6968 B(  4-N ,  6-S ) :   0.1283 B(  5-C ,  6-S ) :   1.0957
B(  5-C , 11-H ) :   0.9590

FINAL SINGLE POINT ENERGY      -682.727676311471

DIPOLE MOMENT
-------------
                                X             Y             Z
Electronic contribution:      1.30652       2.62275      -2.55261
Nuclear contribution   :     -1.06195      -3.79112       2.88971
                        -----------------------------------------
Total Dipole Moment    :      0.24457      -1.16837       0.33710
                        -----------------------------------------
Magnitude (a.u.)       :      1.24038
Magnitude (Debye)      :      3.15280

                             ****ORCA TERMINATED NORMALLY****
TOTAL RUN TIME: 0 days 0 hours 0 minutes 6 seconds 165 msec
