                         Program Version 3.0.3 - RELEASE   -
|  1> ! RI PBE def2-SVP def2-SVP/J NBO PAL2
|  2> % maxcore 2000
|  3> % output
|  4>     # printlevel mini
|  5>     print[ P_Basis ] 0
|  6>     print[ P_SCFInfo ] 1
|  7>     print[ P_SCFIterInfo ] 1
|  8>     print[ P_OrbEn ] 0
|  9>     print[ P_Cartesian ] 0
| 10> end
| 11> *xyz 0 1
| 12>  C        2.0075960000    -0.4675070000     0.9436450000
| 13>  O        2.7451710000     0.1428340000    -0.0921100000
| 14>  C        3.2071750000    -0.6715900000    -1.0604070000
| 15>  C        3.9384210000    -0.2051680000    -2.1237760000
| 16>  S        4.3339470000    -1.5144820000    -3.1164830000
| 17>  N        3.5903320000    -2.6486500000    -2.2113500000
| 18>  C        3.0388320000    -2.0780460000    -1.1629350000
| 19>  H        1.7192710000     0.3302780000     1.6256410000
| 20>  H        2.6129650000    -1.2026210000     1.4849260000
| 21>  H        1.1056400000    -0.9546770000     0.5576490000
| 22>  H        4.2294270000     0.8145030000    -2.3239850000
| 23>  H        2.5021120000    -2.7001610000    -0.4572150000
| 24> *
| 25>
| 26>                          ****END OF INPUT****
 Total Charge           Charge          ....    0
 Multiplicity           Mult            ....    1
 Number of Electrons    NEL             ....   60
 Basis Dimension        Dim             ....  127

MULLIKEN ATOMIC CHARGES
-----------------------
   0 C :    0.137146
   1 O :   -0.264245
   2 C :    0.127218
   3 C :   -0.131596
   4 S :    0.268156
   5 N :   -0.286760
   6 C :    0.009234
   7 H :    0.045093
   8 H :    0.031689
   9 H :    0.032276
  10 H :    0.024587
  11 H :    0.007203
Sum of atomic charges:   -0.0000000

LOEWDIN ATOMIC CHARGES
----------------------
   0 C :    0.063869
   1 O :   -0.072250
   2 C :   -0.038237
   3 C :   -0.240476
   4 S :    0.517472
   5 N :   -0.268809
   6 C :   -0.080763
   7 H :    0.030599
   8 H :    0.016832
   9 H :    0.017072
  10 H :    0.031104
  11 H :    0.023587

  Mayer bond orders larger than 0.1
B(  0-C ,  1-O ) :   0.9809 B(  0-C ,  7-H ) :   0.9740 B(  0-C ,  8-H ) :   0.9600
B(  0-C ,  9-H ) :   0.9600 B(  1-O ,  2-C ) :   1.1627 B(  2-C ,  3-C ) :   1.4792
B(  2-C ,  6-C ) :   1.1930 B(  3-C ,  4-S ) :   1.1625 B(  3-C ,  5-N ) :   0.1513
B(  3-C , 10-H ) :   0.9634 B(  4-S ,  5-N ) :   1.2327 B(  5-N ,  6-C ) :   1.5619
B(  6-C , 11-H ) :   0.9818

FINAL SINGLE POINT ENERGY      -682.720583855422

DIPOLE MOMENT
-------------
                                X             Y             Z
Electronic contribution:      4.25539      -1.24646      -7.24591
Nuclear contribution   :     -4.58190       1.76176       7.91685
                        -----------------------------------------
Total Dipole Moment    :     -0.32651       0.51530       0.67094
                        -----------------------------------------
Magnitude (a.u.)       :      0.90681
Magnitude (Debye)      :      2.30493

                             ****ORCA TERMINATED NORMALLY****
TOTAL RUN TIME: 0 days 0 hours 0 minutes 6 seconds 404 msec
