                         Program Version 3.0.3 - RELEASE   -
|  1> ! RI PBE def2-SVP def2-SVP/J NBO PAL2
|  2> % maxcore 2000
|  3> % output
|  4>     # printlevel mini
|  5>     print[ P_Basis ] 0
|  6>     print[ P_SCFInfo ] 1
|  7>     print[ P_SCFIterInfo ] 1
|  8>     print[ P_OrbEn ] 0
|  9>     print[ P_Cartesian ] 0
| 10> end
| 11> *xyz 0 1
| 12>  C        1.0674800000    -0.0031070000     0.3565870000
| 13>  O        2.4696120000     0.0291660000     0.5647220000
| 14>  C        3.0905760000    -1.1527120000     0.6526690000
| 15>  C        4.4409870000    -1.2640160000     0.8526820000
| 16>  S        4.8528820000    -2.9151570000     0.9079250000
| 17>  C        3.2184710000    -3.3293880000     0.6638830000
| 18>  N        2.4061570000    -2.3195750000     0.5469350000
| 19>  H        0.7541780000     1.0385250000     0.3137670000
| 20>  H        0.5582380000    -0.5143720000     1.1764980000
| 21>  H        0.8187350000    -0.5082030000    -0.5793490000
| 22>  H        5.1668600000    -0.4759620000     0.9632180000
| 23>  H        2.9015230000    -4.3621090000     0.6131630000
| 24> *
| 25>
| 26>                          ****END OF INPUT****
 Total Charge           Charge          ....    0
 Multiplicity           Mult            ....    1
 Number of Electrons    NEL             ....   60
 Basis Dimension        Dim             ....  127

MULLIKEN ATOMIC CHARGES
-----------------------
   0 C :    0.166126
   1 O :   -0.265584
   2 C :    0.156924
   3 C :   -0.142764
   4 S :    0.093847
   5 C :   -0.012589
   6 N :   -0.153304
   7 H :    0.032849
   8 H :    0.029180
   9 H :    0.026477
  10 H :    0.024889
  11 H :    0.043949
Sum of atomic charges:    0.0000000

LOEWDIN ATOMIC CHARGES
----------------------
   0 C :    0.067374
   1 O :   -0.073700
   2 C :   -0.007594
   3 C :   -0.262326
   4 S :    0.445843
   5 C :   -0.163502
   6 N :   -0.117252
   7 H :    0.024253
   8 H :    0.018398
   9 H :    0.018034
  10 H :    0.030496
  11 H :    0.019975

  Mayer bond orders larger than 0.1
B(  0-C ,  1-O ) :   0.9561 B(  0-C ,  7-H ) :   0.9746 B(  0-C ,  8-H ) :   0.9665
B(  0-C ,  9-H ) :   0.9662 B(  1-O ,  2-C ) :   1.1955 B(  2-C ,  3-C ) :   1.4785
B(  2-C ,  6-N ) :   1.3167 B(  3-C ,  4-S ) :   1.1483 B(  3-C , 10-H ) :   0.9646
B(  4-S ,  5-C ) :   1.2049 B(  4-S ,  6-N ) :   0.1366 B(  5-C ,  6-N ) :   1.6079
B(  5-C , 11-H ) :   0.9614

FINAL SINGLE POINT ENERGY      -682.737798623362

DIPOLE MOMENT
-------------
                                X             Y             Z
Electronic contribution:      5.98527      -3.74833       0.87569
Nuclear contribution   :     -6.01475       3.65598      -0.87941
                        -----------------------------------------
Total Dipole Moment    :     -0.02948      -0.09235      -0.00372
                        -----------------------------------------
Magnitude (a.u.)       :      0.09701
Magnitude (Debye)      :      0.24658

                             ****ORCA TERMINATED NORMALLY****
TOTAL RUN TIME: 0 days 0 hours 0 minutes 5 seconds 986 msec
