                         Program Version 3.0.3 - RELEASE   -
|  1> ! RI PBE def2-SVP def2-SVP/J NBO PAL2
|  2> % maxcore 2000
|  3> % output
|  4>     # printlevel mini
|  5>     print[ P_Basis ] 0
|  6>     print[ P_SCFInfo ] 1
|  7>     print[ P_SCFIterInfo ] 1
|  8>     print[ P_OrbEn ] 0
|  9>     print[ P_Cartesian ] 0
| 10> end
| 11> *xyz 0 1
| 12>  C        1.9034230000    -0.5178350000     1.3402060000
| 13>  O        2.5447930000    -0.0350890000     0.1769880000
| 14>  C        3.0271250000    -0.9396480000    -0.6691280000
| 15>  N        3.6287990000    -0.5982810000    -1.7573150000
| 16>  C        4.0246400000    -1.7087900000    -2.4442880000
| 17>  C        3.7284560000    -2.9082030000    -1.8859960000
| 18>  S        2.8994230000    -2.6567270000    -0.4024790000
| 19>  H        1.5825630000     0.3597740000     1.8968250000
| 20>  H        2.5937800000    -1.1074360000     1.9522450000
| 21>  H        1.0309520000    -1.1270750000     1.0824250000
| 22>  H        4.5463860000    -1.5848300000    -3.3842380000
| 23>  H        3.9421690000    -3.9010610000    -2.2481560000
| 24> *
| 25>
| 26>                          ****END OF INPUT****
 Total Charge           Charge          ....    0
 Multiplicity           Mult            ....    1
 Number of Electrons    NEL             ....   60
 Basis Dimension        Dim             ....  127

MULLIKEN ATOMIC CHARGES
-----------------------
   0 C :    0.124770
   1 O :   -0.206623
   2 C :    0.017032
   3 N :   -0.094236
   4 C :    0.060825
   5 C :   -0.099772
   6 S :    0.018038
   7 H :    0.057699
   8 H :    0.042950
   9 H :    0.041929
  10 H :    0.006420
  11 H :    0.030968
Sum of atomic charges:   -0.0000000

LOEWDIN ATOMIC CHARGES
----------------------
   0 C :    0.054549
   1 O :   -0.046477
   2 C :   -0.120465
   3 N :   -0.119242
   4 C :   -0.034339
   5 C :   -0.234434
   6 S :    0.375294
   7 H :    0.035864
   8 H :    0.017757
   9 H :    0.017570
  10 H :    0.026439
  11 H :    0.027485

  Mayer bond orders larger than 0.1
B(  0-C ,  1-O ) :   0.9625 B(  0-C ,  7-H ) :   0.9754 B(  0-C ,  8-H ) :   0.9569
B(  0-C ,  9-H ) :   0.9567 B(  1-O ,  2-C ) :   1.1806 B(  2-C ,  3-N ) :   1.6433
B(  2-C ,  6-S ) :   1.0920 B(  3-N ,  4-C ) :   1.3340 B(  4-C ,  5-C ) :   1.5769
B(  4-C , 10-H ) :   0.9866 B(  5-C ,  6-S ) :   1.1162 B(  5-C , 11-H ) :   0.9628

FINAL SINGLE POINT ENERGY      -682.737081885897

DIPOLE MOMENT
-------------
                                X             Y             Z
Electronic contribution:      1.05726      -0.91712      -1.88534
Nuclear contribution   :     -1.43520       0.26289       2.57330
                        -----------------------------------------
Total Dipole Moment    :     -0.37794      -0.65423       0.68796
                        -----------------------------------------
Magnitude (a.u.)       :      1.02183
Magnitude (Debye)      :      2.59729

                             ****ORCA TERMINATED NORMALLY****
TOTAL RUN TIME: 0 days 0 hours 0 minutes 6 seconds 147 msec
