                         Program Version 3.0.3 - RELEASE   -
|  1> ! RI PBE def2-SVP def2-SVP/J NBO PAL2
|  2> % maxcore 2000
|  3> % output
|  4>     # printlevel mini
|  5>     print[ P_Basis ] 0
|  6>     print[ P_SCFInfo ] 1
|  7>     print[ P_SCFIterInfo ] 1
|  8>     print[ P_OrbEn ] 0
|  9>     print[ P_Cartesian ] 0
| 10> end
| 11> *xyz 0 1
| 12>  C        3.5530000000    -0.2724740000    -1.2748940000
| 13>  O        3.2776100000    -0.7730830000     0.0236130000
| 14>  C        3.5244180000     0.1150350000     1.0519300000
| 15>  S        5.2315520000     0.0820400000     1.6486940000
| 16>  C        5.4367180000    -1.5872520000     2.1994000000
| 17>  O        6.1133810000     0.2868000000     0.5293550000
| 18>  O        5.2855090000     0.9622590000     2.7847740000
| 19>  H        3.2613460000    -1.0550530000    -1.9738220000
| 20>  H        4.6126290000    -0.0405800000    -1.3994530000
| 21>  H        2.9555760000     0.6255110000    -1.4720740000
| 22>  H        2.8978880000    -0.1422900000     1.9094260000
| 23>  H        3.3549880000     1.1666650000     0.7841710000
| 24>  H        5.2058980000    -2.2604220000     1.3749800000
| 25>  H        4.7908000000    -1.7687230000     3.0571190000
| 26>  H        6.4846740000    -1.6800540000     2.4854910000
| 27> *
| 28>
| 29>                          ****END OF INPUT****
 Total Charge           Charge          ....    0
 Multiplicity           Mult            ....    1
 Number of Electrons    NEL             ....   66
 Basis Dimension        Dim             ....  142

MULLIKEN ATOMIC CHARGES
-----------------------
   0 C :    0.125341
   1 O :   -0.330480
   2 C :    0.116653
   3 S :    0.558090
   4 C :   -0.057893
   5 O :   -0.416888
   6 O :   -0.418836
   7 H :    0.041744
   8 H :    0.043935
   9 H :    0.017704
  10 H :    0.053733
  11 H :    0.050093
  12 H :    0.071414
  13 H :    0.061653
  14 H :    0.083736
Sum of atomic charges:    0.0000000

LOEWDIN ATOMIC CHARGES
----------------------
   0 C :    0.054465
   1 O :   -0.140635
   2 C :   -0.072196
   3 S :    1.069578
   4 C :   -0.184646
   5 O :   -0.475608
   6 O :   -0.478051
   7 H :    0.027621
   8 H :    0.014319
   9 H :    0.012981
  10 H :    0.026624
  11 H :    0.019805
  12 H :    0.040123
  13 H :    0.037910
  14 H :    0.047711

  Mayer bond orders larger than 0.1
B(  0-C ,  1-O ) :   0.9675 B(  0-C ,  7-H ) :   0.9755 B(  0-C ,  8-H ) :   0.9562
B(  0-C ,  9-H ) :   0.9612 B(  1-O ,  2-C ) :   1.0551 B(  2-C ,  3-S ) :   0.7917
B(  2-C , 10-H ) :   0.9277 B(  2-C , 11-H ) :   0.9122 B(  3-S ,  4-C ) :   0.8665
B(  3-S ,  5-O ) :   1.7043 B(  3-S ,  6-O ) :   1.7065 B(  4-C , 12-H ) :   0.9421
B(  4-C , 13-H ) :   0.9470 B(  4-C , 14-H ) :   0.9477

FINAL SINGLE POINT ENERGY      -741.959987194225

DIPOLE MOMENT
-------------
                                X             Y             Z
Electronic contribution:      3.14391       3.03496       3.40101
Nuclear contribution   :     -3.98427      -3.86803      -3.69293
                        -----------------------------------------
Total Dipole Moment    :     -0.84036      -0.83307      -0.29192
                        -----------------------------------------
Magnitude (a.u.)       :      1.21878
Magnitude (Debye)      :      3.09790

                             ****ORCA TERMINATED NORMALLY****
TOTAL RUN TIME: 0 days 0 hours 0 minutes 6 seconds 928 msec
