                         Program Version 3.0.3 - RELEASE   -
|  1> ! RI PBE def2-SVP def2-SVP/J NBO PAL2
|  2> % maxcore 2000
|  3> % output
|  4>     # printlevel mini
|  5>     print[ P_Basis ] 0
|  6>     print[ P_SCFInfo ] 1
|  7>     print[ P_SCFIterInfo ] 1
|  8>     print[ P_OrbEn ] 0
|  9>     print[ P_Cartesian ] 0
| 10> end
| 11> *xyz 0 1
| 12>  C        1.3115410000    -0.5772020000    -0.1457230000
| 13>  O        2.7180470000    -0.3119880000    -0.2447780000
| 14>  S        3.1181980000     0.9336320000    -1.1449500000
| 15>  O        2.6156710000     0.7214920000    -2.4669930000
| 16>  O        2.7942070000     2.1419790000    -0.4548700000
| 17>  C        4.8459060000     0.6730620000    -1.1381670000
| 18>  C        5.6557740000     1.5782870000    -0.6192480000
| 19>  H        1.2272000000    -1.4575610000     0.4869090000
| 20>  H        0.8952050000    -0.7792080000    -1.1333750000
| 21>  H        0.7991850000     0.2672030000     0.3182610000
| 22>  H        5.1652180000    -0.2338850000    -1.6372760000
| 23>  H        5.2598380000     2.4686440000    -0.1446140000
| 24>  H        6.7312000000     1.4512340000    -0.6620880000
| 25> *
| 26>
| 27>                          ****END OF INPUT****
 Total Charge           Charge          ....    0
 Multiplicity           Mult            ....    1
 Number of Electrons    NEL             ....   64
 Basis Dimension        Dim             ....  132

MULLIKEN ATOMIC CHARGES
-----------------------
   0 C :    0.123767
   1 O :   -0.402565
   2 S :    0.805293
   3 O :   -0.398861
   4 O :   -0.391365
   5 C :   -0.099264
   6 C :    0.022766
   7 H :    0.056436
   8 H :    0.052614
   9 H :    0.050591
  10 H :    0.054920
  11 H :    0.066828
  12 H :    0.058840
Sum of atomic charges:   -0.0000000

LOEWDIN ATOMIC CHARGES
----------------------
   0 C :    0.049846
   1 O :   -0.275206
   2 S :    1.110839
   3 O :   -0.450314
   4 O :   -0.450825
   5 C :   -0.177393
   6 C :   -0.005372
   7 H :    0.034518
   8 H :    0.022249
   9 H :    0.022456
  10 H :    0.037988
  11 H :    0.039787
  12 H :    0.041427

  Mayer bond orders larger than 0.1
B(  0-C ,  1-O ) :   0.9068 B(  0-C ,  7-H ) :   0.9770 B(  0-C ,  8-H ) :   0.9672
B(  0-C ,  9-H ) :   0.9684 B(  1-O ,  2-S ) :   0.9751 B(  2-S ,  3-O ) :   1.7537
B(  2-S ,  4-O ) :   1.7842 B(  2-S ,  5-C ) :   0.8874 B(  5-C ,  6-C ) :   1.9692
B(  5-C , 10-H ) :   0.9361 B(  6-C , 11-H ) :   0.9350 B(  6-C , 12-H ) :   0.9439

FINAL SINGLE POINT ENERGY      -740.741985713719

DIPOLE MOMENT
-------------
                                X             Y             Z
Electronic contribution:     -0.20736       1.94270      -2.07289
Nuclear contribution   :      0.74439      -2.65801       2.60876
                        -----------------------------------------
Total Dipole Moment    :      0.53703      -0.71531       0.53587
                        -----------------------------------------
Magnitude (a.u.)       :      1.04270
Magnitude (Debye)      :      2.65034

                             ****ORCA TERMINATED NORMALLY****
TOTAL RUN TIME: 0 days 0 hours 0 minutes 6 seconds 803 msec
