                         Program Version 3.0.3 - RELEASE   -
|  1> ! RI PBE def2-SVP def2-SVP/J NBO PAL2
|  2> % maxcore 2000
|  3> % output
|  4>     # printlevel mini
|  5>     print[ P_Basis ] 0
|  6>     print[ P_SCFInfo ] 1
|  7>     print[ P_SCFIterInfo ] 1
|  8>     print[ P_OrbEn ] 0
|  9>     print[ P_Cartesian ] 0
| 10> end
| 11> *xyz 0 1
| 12>  C        2.5413830000    -0.7898660000    -1.1082090000
| 13>  O        2.4194650000    -0.1341360000     0.1626260000
| 14>  S        2.8465920000    -0.9314900000     1.4457610000
| 15>  O        2.4572500000    -0.1305680000     2.5463790000
| 16>  O        2.4504030000    -2.2921480000     1.3215090000
| 17>  C        4.5513210000    -0.8852890000     1.3208170000
| 18>  C        5.7493090000    -0.8722590000     1.2578980000
| 19>  H        2.1255350000    -0.0915470000    -1.8304110000
| 20>  H        1.9794470000    -1.7226500000    -1.1064620000
| 21>  H        3.5929360000    -0.9783640000    -1.3349500000
| 22>  H        6.8142490000    -0.8587750000     1.2104420000
| 23> *
| 24>
| 25>                          ****END OF INPUT****
 Total Charge           Charge          ....    0
 Multiplicity           Mult            ....    1
 Number of Electrons    NEL             ....   62
 Basis Dimension        Dim             ....  122

MULLIKEN ATOMIC CHARGES
-----------------------
   0 C :    0.132880
   1 O :   -0.368613
   2 S :    0.795710
   3 O :   -0.338647
   4 O :   -0.360826
   5 C :    0.411574
   6 C :   -0.465385
   7 H :    0.062176
   8 H :    0.059463
   9 H :    0.043431
  10 H :    0.028236
Sum of atomic charges:   -0.0000000

LOEWDIN ATOMIC CHARGES
----------------------
   0 C :    0.054859
   1 O :   -0.243602
   2 S :    1.087496
   3 O :   -0.399305
   4 O :   -0.414696
   5 C :   -0.212687
   6 C :   -0.004802
   7 H :    0.037620
   8 H :    0.025415
   9 H :    0.022088
  10 H :    0.047613

  Mayer bond orders larger than 0.1
B(  0-C ,  1-O ) :   0.8987 B(  0-C ,  7-H ) :   0.9730 B(  0-C ,  8-H ) :   0.9662
B(  0-C ,  9-H ) :   0.9665 B(  1-O ,  2-S ) :   1.0245 B(  2-S ,  3-O ) :   1.8519
B(  2-S ,  4-O ) :   1.7914 B(  2-S ,  5-C ) :   0.8963 B(  5-C ,  6-C ) :   2.3739
B(  5-C , 10-H ) :  -0.1132 B(  6-C , 10-H ) :   1.1043

FINAL SINGLE POINT ENERGY      -739.481449378039

DIPOLE MOMENT
-------------
                                X             Y             Z
Electronic contribution:     -0.82006       0.19683       5.45706
Nuclear contribution   :      1.80341      -0.14117      -6.78842
                        -----------------------------------------
Total Dipole Moment    :      0.98335       0.05566      -1.33136
                        -----------------------------------------
Magnitude (a.u.)       :      1.65608
Magnitude (Debye)      :      4.20942

                             ****ORCA TERMINATED NORMALLY****
TOTAL RUN TIME: 0 days 0 hours 0 minutes 6 seconds 193 msec
