                         Program Version 3.0.3 - RELEASE   -
|  1> ! RI PBE def2-SVP def2-SVP/J NBO PAL2
|  2> % maxcore 2000
|  3> % output
|  4>     # printlevel mini
|  5>     print[ P_Basis ] 0
|  6>     print[ P_SCFInfo ] 1
|  7>     print[ P_SCFIterInfo ] 1
|  8>     print[ P_OrbEn ] 0
|  9>     print[ P_Cartesian ] 0
| 10> end
| 11> *xyz 0 1
| 12>  C        4.1657810000    -0.5082590000     0.8444520000
| 13>  S        2.7276290000    -0.0779250000    -0.0945320000
| 14>  O        2.2131710000    -1.2827880000    -0.6842770000
| 15>  O        1.8827830000     0.7355800000     0.7404670000
| 16>  C        3.3587170000     0.9413030000    -1.3808720000
| 17>  C        2.4466840000     2.0080040000    -1.9060360000
| 18>  C        3.6427930000     2.3858130000    -1.1009180000
| 19>  H        3.8148020000    -1.1521840000     1.6514800000
| 20>  H        4.6195720000     0.3946140000     1.2497640000
| 21>  H        4.8616390000    -1.0530840000     0.2075150000
| 22>  H        3.9792400000     0.3928140000    -2.0792770000
| 23>  H        1.4806310000     2.1027550000    -1.4271250000
| 24>  H        2.4571340000     2.1684350000    -2.9760630000
| 25>  H        3.4607920000     2.7369920000    -0.0927160000
| 26>  H        4.4987300000     2.8214220000    -1.6007620000
| 27> *
| 28>
| 29>                          ****END OF INPUT****
 Total Charge           Charge          ....    0
 Multiplicity           Mult            ....    1
 Number of Electrons    NEL             ....   64
 Basis Dimension        Dim             ....  142

MULLIKEN ATOMIC CHARGES
-----------------------
   0 C :   -0.043114
   1 S :    0.608059
   2 O :   -0.413842
   3 O :   -0.420532
   4 C :   -0.214514
   5 C :   -0.007386
   6 C :   -0.009938
   7 H :    0.084293
   8 H :    0.060255
   9 H :    0.062053
  10 H :    0.060364
  11 H :    0.067421
  12 H :    0.057699
  13 H :    0.060695
  14 H :    0.048487
Sum of atomic charges:    0.0000000

LOEWDIN ATOMIC CHARGES
----------------------
   0 C :   -0.183244
   1 S :    1.100777
   2 O :   -0.476332
   3 O :   -0.478849
   4 C :   -0.191513
   5 C :   -0.027139
   6 C :   -0.042278
   7 H :    0.047310
   8 H :    0.037782
   9 H :    0.037984
  10 H :    0.033140
  11 H :    0.037347
  12 H :    0.037002
  13 H :    0.034175
  14 H :    0.033839

  Mayer bond orders larger than 0.1
B(  0-C ,  1-S ) :   0.8807 B(  0-C ,  7-H ) :   0.9470 B(  0-C ,  8-H ) :   0.9463
B(  0-C ,  9-H ) :   0.9468 B(  1-S ,  2-O ) :   1.7294 B(  1-S ,  3-O ) :   1.7052
B(  1-S ,  4-C ) :   0.8553 B(  4-C ,  5-C ) :   0.9790 B(  4-C ,  6-C ) :   0.9390
B(  4-C , 10-H ) :   0.9270 B(  5-C ,  6-C ) :   1.0421 B(  5-C , 11-H ) :   0.9394
B(  5-C , 12-H ) :   0.9504 B(  6-C , 13-H ) :   0.9409 B(  6-C , 14-H ) :   0.9436

FINAL SINGLE POINT ENERGY      -704.892609495268

DIPOLE MOMENT
-------------
                                X             Y             Z
Electronic contribution:     -4.29048      -3.84393       1.33083
Nuclear contribution   :      5.74418       4.43778      -1.63971
                        -----------------------------------------
Total Dipole Moment    :      1.45371       0.59385      -0.30888
                        -----------------------------------------
Magnitude (a.u.)       :      1.60041
Magnitude (Debye)      :      4.06793

                             ****ORCA TERMINATED NORMALLY****
TOTAL RUN TIME: 0 days 0 hours 0 minutes 6 seconds 831 msec
