                         Program Version 3.0.3 - RELEASE   -
|  1> ! RI PBE def2-SVP def2-SVP/J NBO PAL2
|  2> % maxcore 2000
|  3> % output
|  4>     # printlevel mini
|  5>     print[ P_Basis ] 0
|  6>     print[ P_SCFInfo ] 1
|  7>     print[ P_SCFIterInfo ] 1
|  8>     print[ P_OrbEn ] 0
|  9>     print[ P_Cartesian ] 0
| 10> end
| 11> *xyz 0 1
| 12>  C        1.0807860000    -0.1112140000    -0.0854730000
| 13>  S        2.8018340000     0.1212910000     0.2515880000
| 14>  O        2.9180830000     0.9235000000     1.4362730000
| 15>  O        3.4476610000    -1.1648030000     0.1700750000
| 16>  C        3.3679270000     1.0691350000    -1.1318090000
| 17>  C        4.8004220000     0.9368200000    -1.4552220000
| 18>  N        3.7837350000     0.3748090000    -2.3328350000
| 19>  H        0.6954140000    -0.7254110000     0.7290880000
| 20>  H        0.9620930000    -0.6274350000    -1.0373170000
| 21>  H        0.5824270000     0.8573040000    -0.0928070000
| 22>  H        2.8438930000     2.0118610000    -1.2527280000
| 23>  H        5.3856750000     0.2552220000    -0.8475880000
| 24>  H        5.3220630000     1.8056230000    -1.8386710000
| 25>  H        3.7333880000    -0.6293920000    -2.1732740000
| 26> *
| 27>
| 28>                          ****END OF INPUT****
 Total Charge           Charge          ....    0
 Multiplicity           Mult            ....    1
 Number of Electrons    NEL             ....   64
 Basis Dimension        Dim             ....  137

MULLIKEN ATOMIC CHARGES
-----------------------
   0 C :   -0.043104
   1 S :    0.599197
   2 O :   -0.403811
   3 O :   -0.422837
   4 C :   -0.158191
   5 C :    0.068461
   6 N :   -0.164667
   7 H :    0.088423
   8 H :    0.064689
   9 H :    0.067161
  10 H :    0.060198
  11 H :    0.066582
  12 H :    0.057978
  13 H :    0.119922
Sum of atomic charges:   -0.0000000

LOEWDIN ATOMIC CHARGES
----------------------
   0 C :   -0.180451
   1 S :    1.085243
   2 O :   -0.467179
   3 O :   -0.477116
   4 C :   -0.153582
   5 C :    0.014681
   6 N :   -0.087800
   7 H :    0.049402
   8 H :    0.040156
   9 H :    0.040542
  10 H :    0.027179
  11 H :    0.025399
  12 H :    0.030710
  13 H :    0.052817

  Mayer bond orders larger than 0.1
B(  0-C ,  1-S ) :   0.8815 B(  0-C ,  7-H ) :   0.9466 B(  0-C ,  8-H ) :   0.9471
B(  0-C ,  9-H ) :   0.9451 B(  1-S ,  2-O ) :   1.7326 B(  1-S ,  3-O ) :   1.6772
B(  1-S ,  4-C ) :   0.8205 B(  4-C ,  5-C ) :   1.0214 B(  4-C ,  6-N ) :   0.9909
B(  4-C , 10-H ) :   0.9174 B(  5-C ,  6-N ) :   0.9956 B(  5-C , 11-H ) :   0.9360
B(  5-C , 12-H ) :   0.9448 B(  6-N , 13-H ) :   0.9308

FINAL SINGLE POINT ENERGY      -720.901779037166

DIPOLE MOMENT
-------------
                                X             Y             Z
Electronic contribution:      1.34257      -0.85116       3.39020
Nuclear contribution   :     -2.01847       1.07819      -4.06831
                        -----------------------------------------
Total Dipole Moment    :     -0.67590       0.22702      -0.67811
                        -----------------------------------------
Magnitude (a.u.)       :      0.98398
Magnitude (Debye)      :      2.50108

                             ****ORCA TERMINATED NORMALLY****
TOTAL RUN TIME: 0 days 0 hours 0 minutes 6 seconds 692 msec
