                         Program Version 3.0.3 - RELEASE   -
|  1> ! RI PBE def2-SVP def2-SVP/J NBO PAL2
|  2> % maxcore 2000
|  3> % output
|  4>     # printlevel mini
|  5>     print[ P_Basis ] 0
|  6>     print[ P_SCFInfo ] 1
|  7>     print[ P_SCFIterInfo ] 1
|  8>     print[ P_OrbEn ] 0
|  9>     print[ P_Cartesian ] 0
| 10> end
| 11> *xyz 0 1
| 12>  C        1.2090860000    -0.0105160000    -0.2872870000
| 13>  S        2.8844640000     0.0064360000     0.2742980000
| 14>  O        2.9071920000     0.2932220000     1.6816200000
| 15>  O        3.5401090000    -1.1580900000    -0.2505730000
| 16>  C        3.5574710000     1.4484280000    -0.5405160000
| 17>  C        4.8287060000     1.3106950000    -1.2396480000
| 18>  O        3.5947750000     1.3978450000    -1.9410830000
| 19>  H        0.7508190000    -0.8930050000     0.1605880000
| 20>  H        1.2049010000    -0.0887010000    -1.3736170000
| 21>  H        0.7030650000     0.8916750000     0.0540720000
| 22>  H        3.2532660000     2.3842920000    -0.0768730000
| 23>  H        5.3034870000     0.3355190000    -1.2670980000
| 24>  H        5.4692480000     2.1839200000    -1.3188820000
| 25> *
| 26>
| 27>                          ****END OF INPUT****
 Total Charge           Charge          ....    0
 Multiplicity           Mult            ....    1
 Number of Electrons    NEL             ....   64
 Basis Dimension        Dim             ....  132

MULLIKEN ATOMIC CHARGES
-----------------------
   0 C :   -0.061261
   1 S :    0.608066
   2 O :   -0.411062
   3 O :   -0.405707
   4 C :   -0.048925
   5 C :    0.165425
   6 O :   -0.261434
   7 H :    0.087555
   8 H :    0.080983
   9 H :    0.064198
  10 H :    0.056513
  11 H :    0.068839
  12 H :    0.056811
Sum of atomic charges:   -0.0000000

LOEWDIN ATOMIC CHARGES
----------------------
   0 C :   -0.182200
   1 S :    1.078791
   2 O :   -0.471138
   3 O :   -0.464625
   4 C :   -0.105280
   5 C :    0.070851
   6 O :   -0.134645
   7 H :    0.049567
   8 H :    0.044469
   9 H :    0.039552
  10 H :    0.021261
  11 H :    0.027068
  12 H :    0.026328

  Mayer bond orders larger than 0.1
B(  0-C ,  1-S ) :   0.8790 B(  0-C ,  7-H ) :   0.9468 B(  0-C ,  8-H ) :   0.9429
B(  0-C ,  9-H ) :   0.9459 B(  1-S ,  2-O ) :   1.7170 B(  1-S ,  3-O ) :   1.7380
B(  1-S ,  4-C ) :   0.7919 B(  4-C ,  5-C ) :   1.0649 B(  4-C ,  6-O ) :   0.9798
B(  4-C , 10-H ) :   0.9164 B(  5-C ,  6-O ) :   0.9731 B(  5-C , 11-H ) :   0.9258
B(  5-C , 12-H ) :   0.9428

FINAL SINGLE POINT ENERGY      -740.736733309471

DIPOLE MOMENT
-------------
                                X             Y             Z
Electronic contribution:      1.70092      -1.50776       1.78980
Nuclear contribution   :     -2.08360       2.37027      -2.30469
                        -----------------------------------------
Total Dipole Moment    :     -0.38268       0.86251      -0.51489
                        -----------------------------------------
Magnitude (a.u.)       :      1.07493
Magnitude (Debye)      :      2.73225

                             ****ORCA TERMINATED NORMALLY****
TOTAL RUN TIME: 0 days 0 hours 0 minutes 6 seconds 696 msec
