                         Program Version 3.0.3 - RELEASE   -
|  1> ! RI PBE def2-SVP def2-SVP/J NBO PAL2
|  2> % maxcore 2000
|  3> % output
|  4>     # printlevel mini
|  5>     print[ P_Basis ] 0
|  6>     print[ P_SCFInfo ] 1
|  7>     print[ P_SCFIterInfo ] 1
|  8>     print[ P_OrbEn ] 0
|  9>     print[ P_Cartesian ] 0
| 10> end
| 11> *xyz 0 1
| 12>  C        3.6966580000     0.4907280000     1.6472040000
| 13>  S        3.0260590000    -0.1275350000     0.1304340000
| 14>  O        3.7206130000    -1.3426780000    -0.1994300000
| 15>  O        1.5930160000    -0.1217990000     0.2384590000
| 16>  C        3.4730360000     1.1090230000    -1.0897300000
| 17>  C        4.9398650000     1.2234520000    -1.3039630000
| 18>  C        5.6323720000     2.3358300000    -1.1013420000
| 19>  H        3.4650640000    -0.2667970000     2.3965460000
| 20>  H        3.2121730000     1.4321540000     1.9025230000
| 21>  H        4.7744370000     0.6083940000     1.5474220000
| 22>  H        3.0105150000     2.0494670000    -0.7839820000
| 23>  H        2.9538600000     0.7416980000    -1.9816680000
| 24>  H        5.4392660000     0.3206000000    -1.6430710000
| 25>  H        5.1561820000     3.2517200000    -0.7648310000
| 26>  H        6.7007830000     2.3734430000    -1.2772910000
| 27> *
| 28>
| 29>                          ****END OF INPUT****
 Total Charge           Charge          ....    0
 Multiplicity           Mult            ....    1
 Number of Electrons    NEL             ....   64
 Basis Dimension        Dim             ....  142

MULLIKEN ATOMIC CHARGES
-----------------------
   0 C :   -0.058515
   1 S :    0.555190
   2 O :   -0.415813
   3 O :   -0.412401
   4 C :   -0.006756
   5 C :   -0.087200
   6 C :   -0.026203
   7 H :    0.087641
   8 H :    0.060173
   9 H :    0.073702
  10 H :    0.046450
  11 H :    0.080235
  12 H :    0.034677
  13 H :    0.025720
  14 H :    0.043099
Sum of atomic charges:    0.0000000

LOEWDIN ATOMIC CHARGES
----------------------
   0 C :   -0.184908
   1 S :    1.095271
   2 O :   -0.477911
   3 O :   -0.476062
   4 C :   -0.161279
   5 C :   -0.051620
   6 C :   -0.048391
   7 H :    0.049036
   8 H :    0.037553
   9 H :    0.039970
  10 H :    0.035800
  11 H :    0.050613
  12 H :    0.035463
  13 H :    0.024462
  14 H :    0.032004

  Mayer bond orders larger than 0.1
B(  0-C ,  1-S ) :   0.8675 B(  0-C ,  7-H ) :   0.9470 B(  0-C ,  8-H ) :   0.9450
B(  0-C ,  9-H ) :   0.9426 B(  1-S ,  2-O ) :   1.7160 B(  1-S ,  3-O ) :   1.7264
B(  1-S ,  4-C ) :   0.8253 B(  4-C ,  5-C ) :   1.0347 B(  4-C , 10-H ) :   0.9227
B(  4-C , 11-H ) :   0.9030 B(  5-C ,  6-C ) :   1.9754 B(  5-C , 12-H ) :   0.9555
B(  6-C , 13-H ) :   0.9510 B(  6-C , 14-H ) :   0.9483

FINAL SINGLE POINT ENERGY      -704.894918601936

DIPOLE MOMENT
-------------
                                X             Y             Z
Electronic contribution:     -4.84289      -5.72530      -0.31884
Nuclear contribution   :      5.69046       7.02947       0.55400
                        -----------------------------------------
Total Dipole Moment    :      0.84756       1.30417       0.23515
                        -----------------------------------------
Magnitude (a.u.)       :      1.57306
Magnitude (Debye)      :      3.99841

                             ****ORCA TERMINATED NORMALLY****
TOTAL RUN TIME: 0 days 0 hours 0 minutes 6 seconds 949 msec
