                         Program Version 3.0.3 - RELEASE   -
|  1> ! RI PBE def2-SVP def2-SVP/J NBO PAL2
|  2> % maxcore 2000
|  3> % output
|  4>     # printlevel mini
|  5>     print[ P_Basis ] 0
|  6>     print[ P_SCFInfo ] 1
|  7>     print[ P_SCFIterInfo ] 1
|  8>     print[ P_OrbEn ] 0
|  9>     print[ P_Cartesian ] 0
| 10> end
| 11> *xyz 0 1
| 12>  C        1.0418170000     0.3241430000     0.0714290000
| 13>  S        2.7932080000     0.0856600000    -0.0533450000
| 14>  O        3.1544280000    -1.0190300000     0.7863450000
| 15>  O        3.1477120000     0.0978680000    -1.4426130000
| 16>  C        3.4270700000     1.6037310000     0.7054510000
| 17>  C        4.8693270000     1.6147260000     0.7064750000
| 18>  C        6.0675190000     1.6136130000     0.7021520000
| 19>  H        0.5977650000    -0.5669510000    -0.3735380000
| 20>  H        0.7484600000     1.2077130000    -0.4938590000
| 21>  H        0.7533590000     0.3998870000     1.1189800000
| 22>  H        3.0262040000     1.6368130000     1.7220510000
| 23>  H        3.0212350000     2.4369410000     0.1255170000
| 24>  H        7.1319960000     1.6075880000     0.6947550000
| 25> *
| 26>
| 27>                          ****END OF INPUT****
 Total Charge           Charge          ....    0
 Multiplicity           Mult            ....    1
 Number of Electrons    NEL             ....   62
 Basis Dimension        Dim             ....  132

MULLIKEN ATOMIC CHARGES
-----------------------
   0 C :   -0.029493
   1 S :    0.543482
   2 O :   -0.404106
   3 O :   -0.404065
   4 C :    0.014015
   5 C :    0.355387
   6 C :   -0.435922
   7 H :    0.088168
   8 H :    0.064184
   9 H :    0.062978
  10 H :    0.066719
  11 H :    0.067764
  12 H :    0.010889
Sum of atomic charges:   -0.0000000

LOEWDIN ATOMIC CHARGES
----------------------
   0 C :   -0.183358
   1 S :    1.094970
   2 O :   -0.465610
   3 O :   -0.465664
   4 C :   -0.167612
   5 C :   -0.047445
   6 C :   -0.037431
   7 H :    0.051071
   8 H :    0.038510
   9 H :    0.038227
  10 H :    0.051942
  11 H :    0.052162
  12 H :    0.040238

  Mayer bond orders larger than 0.1
B(  0-C ,  1-S ) :   0.8741 B(  0-C ,  7-H ) :   0.9462 B(  0-C ,  8-H ) :   0.9455
B(  0-C ,  9-H ) :   0.9455 B(  1-S ,  2-O ) :   1.7348 B(  1-S ,  3-O ) :   1.7344
B(  1-S ,  4-C ) :   0.7887 B(  4-C ,  5-C ) :   1.0648 B(  4-C , 10-H ) :   0.8880
B(  4-C , 11-H ) :   0.8888 B(  5-C ,  6-C ) :   2.3538 B(  5-C , 12-H ) :  -0.1052
B(  6-C , 12-H ) :   1.0971

FINAL SINGLE POINT ENERGY      -703.643448120463

DIPOLE MOMENT
-------------
                                X             Y             Z
Electronic contribution:      3.35035      -2.47766      -1.25094
Nuclear contribution   :     -4.27518       3.58789       1.80983
                        -----------------------------------------
Total Dipole Moment    :     -0.92482       1.11023       0.55889
                        -----------------------------------------
Magnitude (a.u.)       :      1.54928
Magnitude (Debye)      :      3.93795

                             ****ORCA TERMINATED NORMALLY****
TOTAL RUN TIME: 0 days 0 hours 0 minutes 6 seconds 550 msec
