                         Program Version 3.0.3 - RELEASE   -
|  1> ! RI PBE def2-SVP def2-SVP/J NBO PAL2
|  2> % maxcore 2000
|  3> % output
|  4>     # printlevel mini
|  5>     print[ P_Basis ] 0
|  6>     print[ P_SCFInfo ] 1
|  7>     print[ P_SCFIterInfo ] 1
|  8>     print[ P_OrbEn ] 0
|  9>     print[ P_Cartesian ] 0
| 10> end
| 11> *xyz 0 1
| 12>  C        3.2834060000    -1.6381840000     0.8137800000
| 13>  S        3.0723840000    -0.0757940000     0.0002960000
| 14>  O        1.6690370000     0.2344300000     0.0640680000
| 15>  O        4.0414120000     0.8297680000     0.5660010000
| 16>  C        3.4933670000    -0.3682000000    -1.6527840000
| 17>  C        4.6268000000     0.1597640000    -2.1418900000
| 18>  N        5.0829370000     0.0624030000    -3.4090230000
| 19>  H        2.9775160000    -1.4860520000     1.8497880000
| 20>  H        4.3299410000    -1.9337090000     0.7625940000
| 21>  H        2.6403670000    -2.3791150000     0.3400890000
| 22>  H        2.7630320000    -0.9095000000    -2.2419440000
| 23>  H        5.2621910000     0.7166650000    -1.4593850000
| 24>  H        4.4941200000    -0.3111100000    -4.1320660000
| 25>  H        5.8424010000     0.6461350000    -3.7047260000
| 26> *
| 27>
| 28>                          ****END OF INPUT****
 Total Charge           Charge          ....    0
 Multiplicity           Mult            ....    1
 Number of Electrons    NEL             ....   64
 Basis Dimension        Dim             ....  137

MULLIKEN ATOMIC CHARGES
-----------------------
   0 C :   -0.040653
   1 S :    0.602182
   2 O :   -0.429321
   3 O :   -0.432416
   4 C :   -0.182592
   5 C :    0.065318
   6 N :   -0.060634
   7 H :    0.075201
   8 H :    0.052179
   9 H :    0.050950
  10 H :    0.013661
  11 H :    0.039415
  12 H :    0.118745
  13 H :    0.127965
Sum of atomic charges:   -0.0000000

LOEWDIN ATOMIC CHARGES
----------------------
   0 C :   -0.187336
   1 S :    1.102881
   2 O :   -0.486423
   3 O :   -0.492933
   4 C :   -0.310528
   5 C :    0.021451
   6 N :    0.030331
   7 H :    0.041927
   8 H :    0.032955
   9 H :    0.033546
  10 H :    0.021418
  11 H :    0.035099
  12 H :    0.078126
  13 H :    0.079487

  Mayer bond orders larger than 0.1
B(  0-C ,  1-S ) :   0.8753 B(  0-C ,  7-H ) :   0.9453 B(  0-C ,  8-H ) :   0.9495
B(  0-C ,  9-H ) :   0.9482 B(  1-S ,  2-O ) :   1.7038 B(  1-S ,  3-O ) :   1.7032
B(  1-S ,  4-C ) :   0.9199 B(  4-C ,  5-C ) :   1.6633 B(  4-C ,  6-N ) :   0.1063
B(  4-C , 10-H ) :   0.9467 B(  5-C ,  6-N ) :   1.3129 B(  5-C , 11-H ) :   0.9300
B(  6-N , 12-H ) :   0.9571 B(  6-N , 13-H ) :   0.9542

FINAL SINGLE POINT ENERGY      -720.929358179954

DIPOLE MOMENT
-------------
                                X             Y             Z
Electronic contribution:     -2.25559       3.65547       1.88278
Nuclear contribution   :      3.43912      -4.61529      -3.60889
                        -----------------------------------------
Total Dipole Moment    :      1.18353      -0.95982      -1.72611
                        -----------------------------------------
Magnitude (a.u.)       :      2.30249
Magnitude (Debye)      :      5.85247

                             ****ORCA TERMINATED NORMALLY****
TOTAL RUN TIME: 0 days 0 hours 0 minutes 7 seconds 327 msec
