                         Program Version 3.0.3 - RELEASE   -
|  1> ! RI PBE def2-SVP def2-SVP/J NBO PAL2
|  2> % maxcore 2000
|  3> % output
|  4>     # printlevel mini
|  5>     print[ P_Basis ] 0
|  6>     print[ P_SCFInfo ] 1
|  7>     print[ P_SCFIterInfo ] 1
|  8>     print[ P_OrbEn ] 0
|  9>     print[ P_Cartesian ] 0
| 10> end
| 11> *xyz 0 1
| 12>  C        1.1907800000     0.1019640000     0.0003580000
| 13>  S        2.9487210000    -0.0544080000    -0.1217620000
| 14>  O        3.3489950000    -1.2433570000     0.5671970000
| 15>  O        3.3338360000     0.1843610000    -1.4793890000
| 16>  C        3.5056640000     1.3657260000     0.8648840000
| 17>  C        4.9494180000     1.4309790000     0.8994360000
| 18>  N        6.0952120000     1.4984500000     0.9378750000
| 19>  H        0.7911990000    -0.7320620000    -0.5782350000
| 20>  H        0.8716830000     1.0455270000    -0.4402040000
| 21>  H        0.8826880000     0.0125170000     1.0411810000
| 22>  H        3.1087770000     1.2444760000     1.8750430000
| 23>  H        3.0976270000     2.2691350000     0.4066270000
| 24> *
| 25>
| 26>                          ****END OF INPUT****
 Total Charge           Charge          ....    0
 Multiplicity           Mult            ....    1
 Number of Electrons    NEL             ....   62
 Basis Dimension        Dim             ....  127

MULLIKEN ATOMIC CHARGES
-----------------------
   0 C :   -0.019508
   1 S :    0.536358
   2 O :   -0.390526
   3 O :   -0.389656
   4 C :   -0.013247
   5 C :   -0.218460
   6 N :    0.095134
   7 H :    0.096808
   8 H :    0.067678
   9 H :    0.067125
  10 H :    0.084979
  11 H :    0.083316
Sum of atomic charges:   -0.0000000

LOEWDIN ATOMIC CHARGES
----------------------
   0 C :   -0.179219
   1 S :    1.094708
   2 O :   -0.453388
   3 O :   -0.452891
   4 C :   -0.184036
   5 C :   -0.059816
   6 N :   -0.026426
   7 H :    0.055440
   8 H :    0.041345
   9 H :    0.041212
  10 H :    0.061689
  11 H :    0.061383

  Mayer bond orders larger than 0.1
B(  0-C ,  1-S ) :   0.8765 B(  0-C ,  7-H ) :   0.9444 B(  0-C ,  8-H ) :   0.9436
B(  0-C ,  9-H ) :   0.9440 B(  1-S ,  2-O ) :   1.7423 B(  1-S ,  3-O ) :   1.7428
B(  1-S ,  4-C ) :   0.7983 B(  4-C ,  5-C ) :   1.1451 B(  4-C , 10-H ) :   0.8865
B(  4-C , 11-H ) :   0.8871 B(  5-C ,  6-N ) :   3.0521

FINAL SINGLE POINT ENERGY      -719.717609441239

DIPOLE MOMENT
-------------
                                X             Y             Z
Electronic contribution:      5.65061      -1.18907      -0.87091
Nuclear contribution   :     -7.96581       1.98043       1.44129
                        -----------------------------------------
Total Dipole Moment    :     -2.31520       0.79136       0.57038
                        -----------------------------------------
Magnitude (a.u.)       :      2.51231
Magnitude (Debye)      :      6.38579

                             ****ORCA TERMINATED NORMALLY****
TOTAL RUN TIME: 0 days 0 hours 0 minutes 6 seconds 360 msec
