                         Program Version 3.0.3 - RELEASE   -
|  1> ! RI PBE def2-SVP def2-SVP/J NBO PAL2
|  2> % maxcore 2000
|  3> % output
|  4>     # printlevel mini
|  5>     print[ P_Basis ] 0
|  6>     print[ P_SCFInfo ] 1
|  7>     print[ P_SCFIterInfo ] 1
|  8>     print[ P_OrbEn ] 0
|  9>     print[ P_Cartesian ] 0
| 10> end
| 11> *xyz 0 1
| 12>  C        0.9046800000     0.1260670000     0.2088500000
| 13>  S        2.6649190000     0.2655090000     0.2820530000
| 14>  O        3.0366120000     1.5746250000    -0.1696480000
| 15>  O        3.1075670000    -0.2167060000     1.5612220000
| 16>  C        3.2368100000    -0.9112560000    -0.9475810000
| 17>  C        2.9543040000    -2.3251440000    -0.5134640000
| 18>  O        2.0517900000    -2.9742340000    -0.9642990000
| 19>  H        0.5308750000     0.7826620000     0.9954280000
| 20>  H        0.6072170000    -0.9036360000     0.4021630000
| 21>  H        0.5551490000     0.4651490000    -0.7649910000
| 22>  H        4.3110510000    -0.7142630000    -0.9987760000
| 23>  H        2.7577470000    -0.6814990000    -1.8993100000
| 24>  H        3.6213890000    -2.7241750000     0.2726530000
| 25> *
| 26>
| 27>                          ****END OF INPUT****
 Total Charge           Charge          ....    0
 Multiplicity           Mult            ....    1
 Number of Electrons    NEL             ....   64
 Basis Dimension        Dim             ....  132

MULLIKEN ATOMIC CHARGES
-----------------------
   0 C :   -0.048079
   1 S :    0.540238
   2 O :   -0.394643
   3 O :   -0.405716
   4 C :   -0.047660
   5 C :    0.093746
   6 O :   -0.158559
   7 H :    0.092344
   8 H :    0.078325
   9 H :    0.069431
  10 H :    0.087820
  11 H :    0.065692
  12 H :    0.027061
Sum of atomic charges:   -0.0000000

LOEWDIN ATOMIC CHARGES
----------------------
   0 C :   -0.177000
   1 S :    1.096307
   2 O :   -0.460094
   3 O :   -0.469011
   4 C :   -0.201898
   5 C :    0.072731
   6 O :   -0.096144
   7 H :    0.051837
   8 H :    0.043225
   9 H :    0.041830
  10 H :    0.053410
  11 H :    0.042617
  12 H :    0.002190

  Mayer bond orders larger than 0.1
B(  0-C ,  1-S ) :   0.8684 B(  0-C ,  7-H ) :   0.9449 B(  0-C ,  8-H ) :   0.9416
B(  0-C ,  9-H ) :   0.9444 B(  1-S ,  2-O ) :   1.7380 B(  1-S ,  3-O ) :   1.7159
B(  1-S ,  4-C ) :   0.8274 B(  4-C ,  5-C ) :   0.9380 B(  4-C , 10-H ) :   0.9070
B(  4-C , 11-H ) :   0.9171 B(  5-C ,  6-O ) :   2.1366 B(  5-C , 12-H ) :   0.9245

FINAL SINGLE POINT ENERGY      -740.771547360500

DIPOLE MOMENT
-------------
                                X             Y             Z
Electronic contribution:      2.46398       0.66525       1.26901
Nuclear contribution   :     -2.86196      -0.86988      -1.81739
                        -----------------------------------------
Total Dipole Moment    :     -0.39798      -0.20463      -0.54838
                        -----------------------------------------
Magnitude (a.u.)       :      0.70780
Magnitude (Debye)      :      1.79909

                             ****ORCA TERMINATED NORMALLY****
TOTAL RUN TIME: 0 days 0 hours 0 minutes 6 seconds 710 msec
