                         Program Version 3.0.3 - RELEASE   -
|  1> ! RI PBE def2-SVP def2-SVP/J NBO PAL2
|  2> % maxcore 2000
|  3> % output
|  4>     # printlevel mini
|  5>     print[ P_Basis ] 0
|  6>     print[ P_SCFInfo ] 1
|  7>     print[ P_SCFIterInfo ] 1
|  8>     print[ P_OrbEn ] 0
|  9>     print[ P_Cartesian ] 0
| 10> end
| 11> *xyz 0 1
| 12>  C        1.1225050000    -0.1551600000     0.2270620000
| 13>  S        2.8870670000    -0.1927870000     0.3455940000
| 14>  O        3.2396580000    -0.6153280000     1.6728920000
| 15>  O        3.3895320000    -0.9357380000    -0.7879930000
| 16>  C        3.3926000000     1.5038890000     0.1357490000
| 17>  C        4.8942690000     1.5623740000    -0.1401720000
| 18>  O        5.2185510000     1.1723240000    -1.4441390000
| 19>  H        0.7961780000    -1.1853400000     0.3745430000
| 20>  H        0.8300970000     0.1953770000    -0.7615730000
| 21>  H        0.7201300000     0.4802900000     1.0151020000
| 22>  H        3.1285990000     2.0268120000     1.0573450000
| 23>  H        2.8414740000     1.9247030000    -0.7082620000
| 24>  H        5.4286140000     0.9700460000     0.6151020000
| 25>  H        5.2182400000     2.5995040000    -0.0281410000
| 26>  H        4.9078970000     0.2648240000    -1.5584990000
| 27> *
| 28>
| 29>                          ****END OF INPUT****
 Total Charge           Charge          ....    0
 Multiplicity           Mult            ....    1
 Number of Electrons    NEL             ....   66
 Basis Dimension        Dim             ....  142

MULLIKEN ATOMIC CHARGES
-----------------------
   0 C :   -0.033167
   1 S :    0.557600
   2 O :   -0.412636
   3 O :   -0.440254
   4 C :   -0.109155
   5 C :    0.183913
   6 O :   -0.286398
   7 H :    0.084918
   8 H :    0.066398
   9 H :    0.068327
  10 H :    0.055000
  11 H :    0.054816
  12 H :    0.024927
  13 H :    0.028148
  14 H :    0.157562
Sum of atomic charges:   -0.0000000

LOEWDIN ATOMIC CHARGES
----------------------
   0 C :   -0.180206
   1 S :    1.102857
   2 O :   -0.475407
   3 O :   -0.482313
   4 C :   -0.186040
   5 C :    0.046309
   6 O :   -0.120011
   7 H :    0.050060
   8 H :    0.039468
   9 H :    0.040479
  10 H :    0.036732
  11 H :    0.033763
  12 H :    0.012523
  13 H :    0.029916
  14 H :    0.051870

  Mayer bond orders larger than 0.1
B(  0-C ,  1-S ) :   0.8732 B(  0-C ,  7-H ) :   0.9456 B(  0-C ,  8-H ) :   0.9446
B(  0-C ,  9-H ) :   0.9469 B(  1-S ,  2-O ) :   1.7262 B(  1-S ,  3-O ) :   1.6465
B(  1-S ,  4-C ) :   0.8563 B(  4-C ,  5-C ) :   1.0299 B(  4-C , 10-H ) :   0.9077
B(  4-C , 11-H ) :   0.9116 B(  5-C ,  6-O ) :   1.0961 B(  5-C , 12-H ) :   0.9280
B(  5-C , 13-H ) :   0.9414 B(  6-O , 14-H ) :   0.9574

FINAL SINGLE POINT ENERGY      -741.977250263498

DIPOLE MOMENT
-------------
                                X             Y             Z
Electronic contribution:      1.60323      -4.13175       0.47366
Nuclear contribution   :     -2.90602       5.00545      -0.30452
                        -----------------------------------------
Total Dipole Moment    :     -1.30280       0.87370       0.16914
                        -----------------------------------------
Magnitude (a.u.)       :      1.57773
Magnitude (Debye)      :      4.01028

                             ****ORCA TERMINATED NORMALLY****
TOTAL RUN TIME: 0 days 0 hours 0 minutes 6 seconds 981 msec
