                         Program Version 3.0.3 - RELEASE   -
|  1> ! RI PBE def2-SVP def2-SVP/J NBO PAL2
|  2> % maxcore 2000
|  3> % output
|  4>     # printlevel mini
|  5>     print[ P_Basis ] 0
|  6>     print[ P_SCFInfo ] 1
|  7>     print[ P_SCFIterInfo ] 1
|  8>     print[ P_OrbEn ] 0
|  9>     print[ P_Cartesian ] 0
| 10> end
| 11> *xyz 0 1
| 12>  C        1.0770690000     0.0366320000     0.0391700000
| 13>  S        2.8168500000    -0.2277820000    -0.0343110000
| 14>  O        3.0792830000    -1.2930720000    -0.9635200000
| 15>  O        3.4787120000     1.0290630000    -0.1989080000
| 16>  N        3.1006410000    -0.7183290000     1.5369900000
| 17>  C        3.2479500000    -2.1504360000     1.7882020000
| 18>  C        4.4319000000    -1.2725960000     1.7767240000
| 19>  H        0.7777140000     0.3721050000    -0.9537800000
| 20>  H        0.8708250000     0.8021650000     0.7841930000
| 21>  H        0.5813260000    -0.9013730000     0.2847110000
| 22>  H        3.1253300000    -2.8131630000     0.9383410000
| 23>  H        2.8172100000    -2.4775990000     2.7272300000
| 24>  H        5.0962100000    -1.3573100000     0.9230230000
| 25>  H        4.8888900000    -0.9408260000     2.7009350000
| 26> *
| 27>
| 28>                          ****END OF INPUT****
 Total Charge           Charge          ....    0
 Multiplicity           Mult            ....    1
 Number of Electrons    NEL             ....   64
 Basis Dimension        Dim             ....  137

MULLIKEN ATOMIC CHARGES
-----------------------
   0 C :   -0.022470
   1 S :    0.667135
   2 O :   -0.408961
   3 O :   -0.400630
   4 N :   -0.375276
   5 C :    0.031632
   6 C :    0.042728
   7 H :    0.081721
   8 H :    0.076903
   9 H :    0.061363
  10 H :    0.067310
  11 H :    0.052106
  12 H :    0.066183
  13 H :    0.060256
Sum of atomic charges:    0.0000000

LOEWDIN ATOMIC CHARGES
----------------------
   0 C :   -0.173966
   1 S :    1.107182
   2 O :   -0.471662
   3 O :   -0.460401
   4 N :   -0.267146
   5 C :    0.006406
   6 C :    0.017035
   7 H :    0.047307
   8 H :    0.044236
   9 H :    0.040058
  10 H :    0.024113
  11 H :    0.028536
  12 H :    0.026659
  13 H :    0.031644

  Mayer bond orders larger than 0.1
B(  0-C ,  1-S ) :   0.8974 B(  0-C ,  7-H ) :   0.9489 B(  0-C ,  8-H ) :   0.9455
B(  0-C ,  9-H ) :   0.9459 B(  1-S ,  2-O ) :   1.7037 B(  1-S ,  3-O ) :   1.7738
B(  1-S ,  4-N ) :   0.9095 B(  4-N ,  5-C ) :   0.9151 B(  4-N ,  6-C ) :   0.9045
B(  5-C ,  6-C ) :   1.0888 B(  5-C , 10-H ) :   0.9304 B(  5-C , 11-H ) :   0.9465
B(  6-C , 12-H ) :   0.9370 B(  6-C , 13-H ) :   0.9527

FINAL SINGLE POINT ENERGY      -720.901350624708

DIPOLE MOMENT
-------------
                                X             Y             Z
Electronic contribution:      1.84822       2.45150      -3.20102
Nuclear contribution   :     -2.58105      -3.08673       4.08614
                        -----------------------------------------
Total Dipole Moment    :     -0.73283      -0.63523       0.88512
                        -----------------------------------------
Magnitude (a.u.)       :      1.31301
Magnitude (Debye)      :      3.33741

                             ****ORCA TERMINATED NORMALLY****
TOTAL RUN TIME: 0 days 0 hours 0 minutes 6 seconds 914 msec
