                         Program Version 3.0.3 - RELEASE   -
|  1> ! RI PBE def2-SVP def2-SVP/J NBO PAL2
|  2> % maxcore 2000
|  3> % output
|  4>     # printlevel mini
|  5>     print[ P_Basis ] 0
|  6>     print[ P_SCFInfo ] 1
|  7>     print[ P_SCFIterInfo ] 1
|  8>     print[ P_OrbEn ] 0
|  9>     print[ P_Cartesian ] 0
| 10> end
| 11> *xyz 0 1
| 12>  C        1.1785300000    -1.0285470000    -1.0645990000
| 13>  S        2.1851770000    -0.0184650000    -0.0187780000
| 14>  O        3.0013840000    -0.8952210000     0.7600970000
| 15>  O        2.7350510000     1.0301480000    -0.8185260000
| 16>  N        1.1432940000     0.7180060000     1.0124830000
| 17>  C        0.5959390000     0.1038660000     2.1323750000
| 18>  C       -0.4494730000     0.5594630000     2.8127220000
| 19>  H        1.8541400000    -1.5514620000    -1.7419300000
| 20>  H        0.4968910000    -0.3932190000    -1.6280980000
| 21>  H        0.6331540000    -1.7448480000    -0.4512510000
| 22>  H        0.7510570000     1.5837340000     0.6739410000
| 23>  H        1.1357620000    -0.7866380000     2.4339440000
| 24>  H       -0.9835560000     1.4581460000     2.5254710000
| 25>  H       -0.7789500000     0.0404480000     3.7012400000
| 26> *
| 27>
| 28>                          ****END OF INPUT****
 Total Charge           Charge          ....    0
 Multiplicity           Mult            ....    1
 Number of Electrons    NEL             ....   64
 Basis Dimension        Dim             ....  137

MULLIKEN ATOMIC CHARGES
-----------------------
   0 C :   -0.025096
   1 S :    0.652878
   2 O :   -0.391776
   3 O :   -0.400147
   4 N :   -0.234197
   5 C :    0.041003
   6 C :   -0.067939
   7 H :    0.083657
   8 H :    0.058518
   9 H :    0.064064
  10 H :    0.133844
  11 H :    0.035678
  12 H :    0.014714
  13 H :    0.034799
Sum of atomic charges:   -0.0000000

LOEWDIN ATOMIC CHARGES
----------------------
   0 C :   -0.181830
   1 S :    1.102592
   2 O :   -0.455366
   3 O :   -0.462796
   4 N :   -0.159963
   5 C :   -0.007683
   6 C :   -0.119165
   7 H :    0.047244
   8 H :    0.036729
   9 H :    0.039245
  10 H :    0.074706
  11 H :    0.031061
  12 H :    0.021808
  13 H :    0.033417

  Mayer bond orders larger than 0.1
B(  0-C ,  1-S ) :   0.9000 B(  0-C ,  7-H ) :   0.9477 B(  0-C ,  8-H ) :   0.9450
B(  0-C ,  9-H ) :   0.9436 B(  1-S ,  2-O ) :   1.7642 B(  1-S ,  3-O ) :   1.7833
B(  1-S ,  4-N ) :   0.9378 B(  4-N ,  5-C ) :   1.0725 B(  4-N , 10-H ) :   0.9136
B(  5-C ,  6-C ) :   1.9202 B(  5-C , 11-H ) :   0.9463 B(  6-C , 12-H ) :   0.9536
B(  6-C , 13-H ) :   0.9449

FINAL SINGLE POINT ENERGY      -720.918735754475

DIPOLE MOMENT
-------------
                                X             Y             Z
Electronic contribution:      6.33369       1.41936      -1.93183
Nuclear contribution   :     -7.73866      -1.61762       1.66131
                        -----------------------------------------
Total Dipole Moment    :     -1.40497      -0.19826      -0.27052
                        -----------------------------------------
Magnitude (a.u.)       :      1.44445
Magnitude (Debye)      :      3.67150

                             ****ORCA TERMINATED NORMALLY****
TOTAL RUN TIME: 0 days 0 hours 0 minutes 6 seconds 794 msec
