                         Program Version 3.0.3 - RELEASE   -
|  1> ! RI PBE def2-SVP def2-SVP/J NBO PAL2
|  2> % maxcore 2000
|  3> % output
|  4>     # printlevel mini
|  5>     print[ P_Basis ] 0
|  6>     print[ P_SCFInfo ] 1
|  7>     print[ P_SCFIterInfo ] 1
|  8>     print[ P_OrbEn ] 0
|  9>     print[ P_Cartesian ] 0
| 10> end
| 11> *xyz 0 1
| 12>  C        1.0379910000    -0.4033800000    -0.8417040000
| 13>  S        2.5405410000    -0.0265640000    -0.0169400000
| 14>  O        3.1975930000    -1.2274340000     0.3850620000
| 15>  O        3.2649100000     0.9672700000    -0.7401940000
| 16>  O        1.8757810000     0.6583580000     1.2790680000
| 17>  C        2.7378980000     1.1332800000     2.2485320000
| 18>  C        2.2666800000     1.7049680000     3.3390070000
| 19>  H        1.3243570000    -0.8901990000    -1.7738450000
| 20>  H        0.5025960000     0.5222850000    -1.0429630000
| 21>  H        0.4533110000    -1.0796100000    -0.2213250000
| 22>  H        3.7926310000     0.9984350000     2.0385320000
| 23>  H        1.2041010000     1.8199960000     3.5097950000
| 24>  H        2.9588290000     2.0696950000     4.0845550000
| 25> *
| 26>
| 27>                          ****END OF INPUT****
 Total Charge           Charge          ....    0
 Multiplicity           Mult            ....    1
 Number of Electrons    NEL             ....   64
 Basis Dimension        Dim             ....  132

MULLIKEN ATOMIC CHARGES
-----------------------
   0 C :   -0.058001
   1 S :    0.747201
   2 O :   -0.388525
   3 O :   -0.387914
   4 O :   -0.348515
   5 C :    0.117730
   6 C :   -0.058742
   7 H :    0.089157
   8 H :    0.083477
   9 H :    0.084504
  10 H :    0.037297
  11 H :    0.037756
  12 H :    0.044575
Sum of atomic charges:   -0.0000000

LOEWDIN ATOMIC CHARGES
----------------------
   0 C :   -0.172004
   1 S :    1.115474
   2 O :   -0.447360
   3 O :   -0.447267
   4 O :   -0.228561
   5 C :    0.031899
   6 C :   -0.093246
   7 H :    0.051690
   8 H :    0.047603
   9 H :    0.047632
  10 H :    0.020190
  11 H :    0.033912
  12 H :    0.040037

  Mayer bond orders larger than 0.1
B(  0-C ,  1-S ) :   0.9121 B(  0-C ,  7-H ) :   0.9474 B(  0-C ,  8-H ) :   0.9434
B(  0-C ,  9-H ) :   0.9437 B(  1-S ,  2-O ) :   1.7849 B(  1-S ,  3-O ) :   1.7855
B(  1-S ,  4-O ) :   0.9130 B(  4-O ,  5-C ) :   0.9862 B(  5-C ,  6-C ) :   1.9876
B(  5-C , 10-H ) :   0.9451 B(  6-C , 11-H ) :   0.9491 B(  6-C , 12-H ) :   0.9419

FINAL SINGLE POINT ENERGY      -740.752501373330

DIPOLE MOMENT
-------------
                                X             Y             Z
Electronic contribution:      3.06123      -1.41604      -2.57054
Nuclear contribution   :     -4.10737       1.46768       2.60165
                        -----------------------------------------
Total Dipole Moment    :     -1.04614       0.05164       0.03111
                        -----------------------------------------
Magnitude (a.u.)       :      1.04788
Magnitude (Debye)      :      2.66350

                             ****ORCA TERMINATED NORMALLY****
TOTAL RUN TIME: 0 days 0 hours 0 minutes 6 seconds 409 msec
