                         Program Version 3.0.3 - RELEASE   -
|  1> ! RI PBE def2-SVP def2-SVP/J NBO PAL2
|  2> % maxcore 2000
|  3> % output
|  4>     # printlevel mini
|  5>     print[ P_Basis ] 0
|  6>     print[ P_SCFInfo ] 1
|  7>     print[ P_SCFIterInfo ] 1
|  8>     print[ P_OrbEn ] 0
|  9>     print[ P_Cartesian ] 0
| 10> end
| 11> *xyz 0 1
| 12>  N        0.8224980000     0.0580120000    -0.0735920000
| 13>  C        2.1957380000    -0.0029850000    -0.0670220000
| 14>  C        3.1137540000     0.9967720000    -0.0640810000
| 15>  C        4.4665570000     0.5255490000    -0.0572720000
| 16>  C        4.5647790000    -0.8281960000    -0.0550980000
| 17>  N        5.6787340000    -1.6335660000    -0.0491570000
| 18>  S        2.9836580000    -1.5541670000    -0.0614090000
| 19>  H        0.3646080000     0.9473510000    -0.0754560000
| 20>  H        0.2594050000    -0.7672870000    -0.0737340000
| 21>  H        2.8445210000     2.0453450000    -0.0666900000
| 22>  H        5.3289800000     1.1799300000    -0.0541860000
| 23>  H        6.5900440000    -1.2211630000    -0.0440490000
| 24>  H        5.6072150000    -2.6300960000    -0.0467530000
| 25> *
| 26>
| 27>                          ****END OF INPUT****
 Total Charge           Charge          ....    0
 Multiplicity           Mult            ....    1
 Number of Electrons    NEL             ....   60
 Basis Dimension        Dim             ....  132

MULLIKEN ATOMIC CHARGES
-----------------------
   0 N :   -0.070356
   1 C :   -0.087346
   2 C :   -0.018130
   3 C :   -0.007085
   4 C :   -0.094198
   5 N :   -0.067322
   6 S :    0.016165
   7 H :    0.108478
   8 H :    0.107240
   9 H :   -0.049691
  10 H :   -0.051391
  11 H :    0.107321
  12 H :    0.106314
Sum of atomic charges:   -0.0000000

LOEWDIN ATOMIC CHARGES
----------------------
   0 N :   -0.030673
   1 C :   -0.155460
   2 C :   -0.142151
   3 C :   -0.140366
   4 C :   -0.156224
   5 N :   -0.030865
   6 S :    0.340739
   7 H :    0.072663
   8 H :    0.065893
   9 H :    0.019183
  10 H :    0.019150
  11 H :    0.072486
  12 H :    0.065626

  Mayer bond orders larger than 0.1
B(  0-N ,  1-C ) :   1.2081 B(  0-N ,  7-H ) :   0.9557 B(  0-N ,  8-H ) :   0.9480
B(  1-C ,  2-C ) :   1.5220 B(  1-C ,  6-S ) :   1.0633 B(  2-C ,  3-C ) :   1.1655
B(  2-C ,  9-H ) :   0.9959 B(  3-C ,  4-C ) :   1.5262 B(  3-C , 10-H ) :   0.9940
B(  4-C ,  5-N ) :   1.2071 B(  4-C ,  6-S ) :   1.0645 B(  5-N , 11-H ) :   0.9561
B(  5-N , 12-H ) :   0.9480

FINAL SINGLE POINT ENERGY      -662.891531806700

DIPOLE MOMENT
-------------
                                X             Y             Z
Electronic contribution:     -1.07179      -3.07462      -0.00212
Nuclear contribution   :      0.96333       2.76563       0.00542
                        -----------------------------------------
Total Dipole Moment    :     -0.10847      -0.30899       0.00329
                        -----------------------------------------
Magnitude (a.u.)       :      0.32749
Magnitude (Debye)      :      0.83241

                             ****ORCA TERMINATED NORMALLY****
TOTAL RUN TIME: 0 days 0 hours 0 minutes 6 seconds 625 msec
