                         Program Version 3.0.3 - RELEASE   -
|  1> ! RI PBE def2-SVP def2-SVP/J NBO PAL2
|  2> % maxcore 2000
|  3> % output
|  4>     # printlevel mini
|  5>     print[ P_Basis ] 0
|  6>     print[ P_SCFInfo ] 1
|  7>     print[ P_SCFIterInfo ] 1
|  8>     print[ P_OrbEn ] 0
|  9>     print[ P_Cartesian ] 0
| 10> end
| 11> *xyz 0 1
| 12>  N        0.8371110000     0.0722380000     0.0794010000
| 13>  C        2.2073110000     0.0187470000     0.0856460000
| 14>  C        3.1104330000     1.0363290000     0.0881370000
| 15>  C        4.4673690000     0.5808410000     0.0949240000
| 16>  C        4.5649410000    -0.7676450000     0.0974320000
| 17>  O        5.6419740000    -1.5905620000     0.1035250000
| 18>  S        3.0050770000    -1.5243230000     0.0915960000
| 19>  H        0.3737520000     0.9591070000     0.0760800000
| 20>  H        0.2781710000    -0.7563940000     0.0782720000
| 21>  H        2.8274040000     2.0808380000     0.0852610000
| 22>  H        5.3254160000     1.2420170000     0.0977570000
| 23>  H        6.4357400000    -1.0479030000     0.1062600000
| 24> *
| 25>
| 26>                          ****END OF INPUT****
 Total Charge           Charge          ....    0
 Multiplicity           Mult            ....    1
 Number of Electrons    NEL             ....   60
 Basis Dimension        Dim             ....  127

MULLIKEN ATOMIC CHARGES
-----------------------
   0 N :   -0.066122
   1 C :   -0.102516
   2 C :   -0.006648
   3 C :   -0.021304
   4 C :   -0.001576
   5 O :   -0.163378
   6 S :    0.046345
   7 H :    0.110887
   8 H :    0.110959
   9 H :   -0.042667
  10 H :   -0.038018
  11 H :    0.174038
Sum of atomic charges:   -0.0000000

LOEWDIN ATOMIC CHARGES
----------------------
   0 N :   -0.023953
   1 C :   -0.148443
   2 C :   -0.142870
   3 C :   -0.139445
   4 C :   -0.146745
   5 O :   -0.046949
   6 S :    0.368383
   7 H :    0.074561
   8 H :    0.068439
   9 H :    0.020646
  10 H :    0.022815
  11 H :    0.093563

  Mayer bond orders larger than 0.1
B(  0-N ,  1-C ) :   1.2261 B(  0-N ,  7-H ) :   0.9549 B(  0-N ,  8-H ) :   0.9470
B(  1-C ,  2-C ) :   1.5027 B(  1-C ,  6-S ) :   1.0855 B(  2-C ,  3-C ) :   1.1692
B(  2-C ,  9-H ) :   0.9979 B(  3-C ,  4-C ) :   1.5155 B(  3-C , 10-H ) :   0.9876
B(  4-C ,  5-O ) :   1.1932 B(  4-C ,  6-S ) :   1.0756 B(  5-O , 11-H ) :   0.9643

FINAL SINGLE POINT ENERGY      -682.732370839441

DIPOLE MOMENT
-------------
                                X             Y             Z
Electronic contribution:      1.01662      -4.31039       0.01112
Nuclear contribution   :     -1.39845       4.80062      -0.01346
                        -----------------------------------------
Total Dipole Moment    :     -0.38183       0.49023      -0.00234
                        -----------------------------------------
Magnitude (a.u.)       :      0.62139
Magnitude (Debye)      :      1.57945

                             ****ORCA TERMINATED NORMALLY****
TOTAL RUN TIME: 0 days 0 hours 0 minutes 6 seconds 703 msec
