                         Program Version 3.0.3 - RELEASE   -
|  1> ! RI PBE def2-SVP def2-SVP/J NBO PAL2
|  2> % maxcore 2000
|  3> % output
|  4>     # printlevel mini
|  5>     print[ P_Basis ] 0
|  6>     print[ P_SCFInfo ] 1
|  7>     print[ P_SCFIterInfo ] 1
|  8>     print[ P_OrbEn ] 0
|  9>     print[ P_Cartesian ] 0
| 10> end
| 11> *xyz 0 1
| 12>  N        0.9695100000     0.0247480000     0.0309420000
| 13>  C        2.3320790000    -0.0430530000     0.0369100000
| 14>  C        3.2326570000     0.9873560000     0.0406180000
| 15>  C        4.5783940000     0.5213510000     0.0464990000
| 16>  O        5.6611890000     1.3392250000     0.0510180000
| 17>  C        4.6952000000    -0.8317660000     0.0472370000
| 18>  S        3.1353550000    -1.5679110000     0.0406360000
| 19>  H        0.5090650000     0.9133280000     0.0293570000
| 20>  H        0.4067820000    -0.8022750000     0.0292360000
| 21>  H        2.9498010000     2.0333160000     0.0392060000
| 22>  H        5.3626190000     2.2514070000     0.0496370000
| 23>  H        5.5919480000    -1.4280360000     0.0512040000
| 24> *
| 25>
| 26>                          ****END OF INPUT****
 Total Charge           Charge          ....    0
 Multiplicity           Mult            ....    1
 Number of Electrons    NEL             ....   60
 Basis Dimension        Dim             ....  127

MULLIKEN ATOMIC CHARGES
-----------------------
   0 N :   -0.051490
   1 C :   -0.123039
   2 C :   -0.025780
   3 C :    0.147427
   4 O :   -0.165363
   5 C :   -0.172132
   6 S :    0.046145
   7 H :    0.112210
   8 H :    0.114747
   9 H :   -0.051816
  10 H :    0.164464
  11 H :    0.004627
Sum of atomic charges:   -0.0000000

LOEWDIN ATOMIC CHARGES
----------------------
   0 N :   -0.011901
   1 C :   -0.139180
   2 C :   -0.182989
   3 C :   -0.004626
   4 O :   -0.035871
   5 C :   -0.280886
   6 S :    0.384057
   7 H :    0.076042
   8 H :    0.071134
   9 H :    0.017266
  10 H :    0.084288
  11 H :    0.022666

  Mayer bond orders larger than 0.1
B(  0-N ,  1-C ) :   1.2460 B(  0-N ,  7-H ) :   0.9510 B(  0-N ,  8-H ) :   0.9474
B(  1-C ,  2-C ) :   1.4222 B(  1-C ,  6-S ) :   1.1594 B(  2-C ,  3-C ) :   1.1924
B(  2-C ,  9-H ) :   0.9858 B(  3-C ,  4-O ) :   1.1993 B(  3-C ,  5-C ) :   1.5385
B(  4-O , 10-H ) :   0.9708 B(  5-C ,  6-S ) :   1.0529 B(  5-C , 11-H ) :   0.9719

FINAL SINGLE POINT ENERGY      -682.738605087829

DIPOLE MOMENT
-------------
                                X             Y             Z
Electronic contribution:      1.06833      -2.88878       0.00484
Nuclear contribution   :     -2.27448       3.57701      -0.00946
                        -----------------------------------------
Total Dipole Moment    :     -1.20615       0.68822      -0.00462
                        -----------------------------------------
Magnitude (a.u.)       :      1.38870
Magnitude (Debye)      :      3.52979

                             ****ORCA TERMINATED NORMALLY****
TOTAL RUN TIME: 0 days 0 hours 0 minutes 6 seconds 704 msec
