                         Program Version 3.0.3 - RELEASE   -
|  1> ! RI PBE def2-SVP def2-SVP/J NBO PAL2
|  2> % maxcore 2000
|  3> % output
|  4>     # printlevel mini
|  5>     print[ P_Basis ] 0
|  6>     print[ P_SCFInfo ] 1
|  7>     print[ P_SCFIterInfo ] 1
|  8>     print[ P_OrbEn ] 0
|  9>     print[ P_Cartesian ] 0
| 10> end
| 11> *xyz 0 1
| 12>  N        0.8568400000     0.2927720000     0.0853040000
| 13>  C        2.2512030000     0.1182760000     0.0572470000
| 14>  C        3.1557930000     1.1484330000     0.0711100000
| 15>  N        2.7851150000     2.4857520000     0.0438960000
| 16>  C        4.5021180000     0.6875970000     0.0453790000
| 17>  C        4.5942560000    -0.6696390000     0.0152570000
| 18>  S        3.0619670000    -1.4140820000    -0.0091070000
| 19>  H        0.4065350000     0.0972100000    -0.7997560000
| 20>  H        0.3996490000    -0.2416860000     0.8115210000
| 21>  H        1.8081940000     2.6043220000     0.2761620000
| 22>  H        3.3773880000     3.0906340000     0.5914420000
| 23>  H        5.3618090000     1.3457790000     0.0476990000
| 24>  H        5.4920230000    -1.2685690000     0.0032450000
| 25> *
| 26>
| 27>                          ****END OF INPUT****
 Total Charge           Charge          ....    0
 Multiplicity           Mult            ....    1
 Number of Electrons    NEL             ....   60
 Basis Dimension        Dim             ....  132

MULLIKEN ATOMIC CHARGES
-----------------------
   0 N :   -0.130064
   1 C :   -0.268448
   2 C :    0.044903
   3 N :   -0.043318
   4 C :    0.013107
   5 C :   -0.087212
   6 S :    0.062403
   7 H :    0.115083
   8 H :    0.109487
   9 H :    0.093984
  10 H :    0.104143
  11 H :   -0.035339
  12 H :    0.021270
Sum of atomic charges:    0.0000000

LOEWDIN ATOMIC CHARGES
----------------------
   0 N :   -0.070706
   1 C :   -0.245491
   2 C :   -0.045737
   3 N :   -0.029662
   4 C :   -0.092406
   5 C :   -0.201925
   6 S :    0.385480
   7 H :    0.064247
   8 H :    0.062481
   9 H :    0.059975
  10 H :    0.065809
  11 H :    0.025326
  12 H :    0.022608

  Mayer bond orders larger than 0.1
B(  0-N ,  1-C ) :   1.1890 B(  0-N ,  7-H ) :   0.9581 B(  0-N ,  8-H ) :   0.9575
B(  1-C ,  2-C ) :   1.4407 B(  1-C ,  6-S ) :   1.0785 B(  2-C ,  3-N ) :   1.2598
B(  2-C ,  4-C ) :   1.2510 B(  3-N ,  9-H ) :   0.9310 B(  3-N , 10-H ) :   0.9430
B(  4-C ,  5-C ) :   1.5066 B(  4-C ,  6-S ) :   0.1030 B(  4-C , 11-H ) :   0.9969
B(  5-C ,  6-S ) :   1.1866 B(  5-C , 12-H ) :   0.9641

FINAL SINGLE POINT ENERGY      -662.903549364946

DIPOLE MOMENT
-------------
                                X             Y             Z
Electronic contribution:      0.63352      -4.41559      -0.31939
Nuclear contribution   :     -0.99272       4.61420       0.64152
                        -----------------------------------------
Total Dipole Moment    :     -0.35920       0.19861       0.32213
                        -----------------------------------------
Magnitude (a.u.)       :      0.52176
Magnitude (Debye)      :      1.32622

                             ****ORCA TERMINATED NORMALLY****
TOTAL RUN TIME: 0 days 0 hours 0 minutes 6 seconds 550 msec
