                         Program Version 3.0.3 - RELEASE   -
|  1> ! RI PBE def2-SVP def2-SVP/J NBO PAL2
|  2> % maxcore 2000
|  3> % output
|  4>     # printlevel mini
|  5>     print[ P_Basis ] 0
|  6>     print[ P_SCFInfo ] 1
|  7>     print[ P_SCFIterInfo ] 1
|  8>     print[ P_OrbEn ] 0
|  9>     print[ P_Cartesian ] 0
| 10> end
| 11> *xyz 0 1
| 12>  N        1.0053720000     0.1964150000     0.0463350000
| 13>  C        2.4197370000     0.0565810000     0.0456620000
| 14>  C        3.1778250000     1.1883920000    -0.0734680000
| 15>  O        2.7070230000     2.4364430000    -0.1913330000
| 16>  S        4.8569400000     0.8533970000    -0.0580600000
| 17>  C        4.5567510000    -0.8341460000     0.1110010000
| 18>  C        3.2274980000    -1.1105500000     0.1520390000
| 19>  H        0.5838340000    -0.1303900000     0.9064740000
| 20>  H        0.5671610000    -0.2917180000    -0.7244150000
| 21>  H        1.7403140000     2.3285270000    -0.1711490000
| 22>  H        5.3891030000    -1.5171490000     0.1696280000
| 23>  H        2.8281430000    -2.1119020000     0.2546740000
| 24> *
| 25>
| 26>                          ****END OF INPUT****
 Total Charge           Charge          ....    0
 Multiplicity           Mult            ....    1
 Number of Electrons    NEL             ....   60
 Basis Dimension        Dim             ....  127

MULLIKEN ATOMIC CHARGES
-----------------------
   0 N :   -0.150938
   1 C :   -0.050659
   2 C :   -0.051381
   3 O :   -0.138172
   4 S :    0.081505
   5 C :   -0.122548
   6 C :    0.051539
   7 H :    0.114239
   8 H :    0.114913
   9 H :    0.158981
  10 H :    0.027053
  11 H :   -0.034531
Sum of atomic charges:   -0.0000000

LOEWDIN ATOMIC CHARGES
----------------------
   0 N :   -0.067562
   1 C :   -0.132539
   2 C :   -0.142462
   3 O :   -0.030587
   4 S :    0.418691
   5 C :   -0.220248
   6 C :   -0.083440
   7 H :    0.065360
   8 H :    0.065566
   9 H :    0.078683
  10 H :    0.022846
  11 H :    0.025693

  Mayer bond orders larger than 0.1
B(  0-N ,  1-C ) :   1.1300 B(  0-N ,  7-H ) :   0.9587 B(  0-N ,  8-H ) :   0.9593
B(  0-N ,  9-H ) :   0.1096 B(  1-C ,  2-C ) :   1.4174 B(  1-C ,  6-C ) :   1.2561
B(  2-C ,  3-O ) :   1.2793 B(  2-C ,  4-S ) :   1.1504 B(  3-O ,  9-H ) :   0.9237
B(  4-S ,  5-C ) :   1.1331 B(  5-C ,  6-C ) :   1.5205 B(  5-C , 10-H ) :   0.9634
B(  6-C , 11-H ) :   1.0065

FINAL SINGLE POINT ENERGY      -682.741006597511

DIPOLE MOMENT
-------------
                                X             Y             Z
Electronic contribution:      4.49325       3.33075      -0.37165
Nuclear contribution   :     -5.32941      -4.00079       0.44846
                        -----------------------------------------
Total Dipole Moment    :     -0.83616      -0.67004       0.07681
                        -----------------------------------------
Magnitude (a.u.)       :      1.07425
Magnitude (Debye)      :      2.73053

                             ****ORCA TERMINATED NORMALLY****
TOTAL RUN TIME: 0 days 0 hours 0 minutes 6 seconds 226 msec
