                         Program Version 3.0.3 - RELEASE   -
|  1> ! RI PBE def2-SVP def2-SVP/J NBO PAL2
|  2> % maxcore 2000
|  3> % output
|  4>     # printlevel mini
|  5>     print[ P_Basis ] 0
|  6>     print[ P_SCFInfo ] 1
|  7>     print[ P_SCFIterInfo ] 1
|  8>     print[ P_OrbEn ] 0
|  9>     print[ P_Cartesian ] 0
| 10> end
| 11> *xyz 0 1
| 12>  N        0.9254390000    -0.1885540000    -0.1463520000
| 13>  C        2.3132270000    -0.0556630000    -0.0595290000
| 14>  C        3.0467150000     1.0943850000    -0.0855990000
| 15>  S        4.7256220000     0.7774730000    -0.0165770000
| 16>  C        4.4671410000    -0.9118330000     0.0415510000
| 17>  C        3.1391300000    -1.2220990000     0.0037630000
| 18>  N        2.5527750000    -2.4876220000     0.0793530000
| 19>  H        0.4328140000     0.6881870000    -0.0703880000
| 20>  H        0.5644190000    -0.8515500000     0.5278750000
| 21>  H        2.6821090000     2.1096250000    -0.1233010000
| 22>  H        5.3036450000    -1.5927900000     0.0819390000
| 23>  H        3.2169220000    -3.2428320000     0.0039590000
| 24>  H        1.8123310000    -2.6044380000    -0.6007730000
| 25> *
| 26>
| 27>                          ****END OF INPUT****
 Total Charge           Charge          ....    0
 Multiplicity           Mult            ....    1
 Number of Electrons    NEL             ....   60
 Basis Dimension        Dim             ....  132

MULLIKEN ATOMIC CHARGES
-----------------------
   0 N :   -0.077551
   1 C :    0.027263
   2 C :   -0.186452
   3 S :    0.065708
   4 C :   -0.186062
   5 C :    0.027042
   6 N :   -0.075285
   7 H :    0.099707
   8 H :    0.110087
   9 H :   -0.005710
  10 H :   -0.006547
  11 H :    0.099262
  12 H :    0.108539
Sum of atomic charges:   -0.0000000

LOEWDIN ATOMIC CHARGES
----------------------
   0 N :   -0.040788
   1 C :   -0.055543
   2 C :   -0.261227
   3 S :    0.414739
   4 C :   -0.261596
   5 C :   -0.055657
   6 N :   -0.040301
   7 H :    0.068275
   8 H :    0.064835
   9 H :    0.017251
  10 H :    0.017337
  11 H :    0.068106
  12 H :    0.064570

  Mayer bond orders larger than 0.1
B(  0-N ,  1-C ) :   1.1980 B(  0-N ,  7-H ) :   0.9469 B(  0-N ,  8-H ) :   0.9338
B(  1-C ,  2-C ) :   1.4712 B(  1-C ,  5-C ) :   1.2741 B(  2-C ,  3-S ) :   1.1325
B(  2-C ,  9-H ) :   0.9750 B(  3-S ,  4-C ) :   1.1332 B(  4-C ,  5-C ) :   1.4746
B(  4-C , 10-H ) :   0.9712 B(  5-C ,  6-N ) :   1.1960 B(  6-N , 11-H ) :   0.9471
B(  6-N , 12-H ) :   0.9342

FINAL SINGLE POINT ENERGY      -662.906532774345

DIPOLE MOMENT
-------------
                                X             Y             Z
Electronic contribution:      4.48295       3.17684       0.02546
Nuclear contribution   :     -5.16090      -3.65541      -0.02929
                        -----------------------------------------
Total Dipole Moment    :     -0.67795      -0.47857      -0.00383
                        -----------------------------------------
Magnitude (a.u.)       :      0.82986
Magnitude (Debye)      :      2.10934

                             ****ORCA TERMINATED NORMALLY****
TOTAL RUN TIME: 0 days 0 hours 0 minutes 6 seconds 796 msec
