                         Program Version 3.0.3 - RELEASE   -
|  1> ! RI PBE def2-SVP def2-SVP/J NBO PAL2
|  2> % maxcore 2000
|  3> % output
|  4>     # printlevel mini
|  5>     print[ P_Basis ] 0
|  6>     print[ P_SCFInfo ] 1
|  7>     print[ P_SCFIterInfo ] 1
|  8>     print[ P_OrbEn ] 0
|  9>     print[ P_Cartesian ] 0
| 10> end
| 11> *xyz 0 1
| 12>  N        1.0252590000     0.0213650000    -0.0773190000
| 13>  C        2.3884790000     0.1304190000    -0.0722100000
| 14>  C        3.1472280000     1.2683540000    -0.0681610000
| 15>  S        4.8264370000     0.9251150000    -0.0625760000
| 16>  C        4.5468390000    -0.7605350000    -0.0655360000
| 17>  C        3.2144940000    -1.0355800000    -0.0706160000
| 18>  O        2.6036940000    -2.2520320000    -0.0741890000
| 19>  H        0.4367190000     0.8291280000    -0.0776720000
| 20>  H        0.6058870000    -0.8875410000    -0.0790690000
| 21>  H        2.8016740000     2.2903680000    -0.0682210000
| 22>  H        5.3688380000    -1.4602580000    -0.0634060000
| 23>  H        3.2675300000    -2.9456930000    -0.0727260000
| 24> *
| 25>
| 26>                          ****END OF INPUT****
 Total Charge           Charge          ....    0
 Multiplicity           Mult            ....    1
 Number of Electrons    NEL             ....   60
 Basis Dimension        Dim             ....  127

MULLIKEN ATOMIC CHARGES
-----------------------
   0 N :   -0.047678
   1 C :    0.038642
   2 C :   -0.193755
   3 S :    0.064811
   4 C :   -0.202432
   5 C :    0.140977
   6 O :   -0.178148
   7 H :    0.103457
   8 H :    0.107367
   9 H :   -0.006430
  10 H :    0.000327
  11 H :    0.172862
Sum of atomic charges:   -0.0000000

LOEWDIN ATOMIC CHARGES
----------------------
   0 N :   -0.008986
   1 C :   -0.045078
   2 C :   -0.273176
   3 S :    0.412050
   4 C :   -0.276520
   5 C :   -0.028484
   6 O :   -0.042639
   7 H :    0.069165
   8 H :    0.067980
   9 H :    0.016322
  10 H :    0.018735
  11 H :    0.090632

  Mayer bond orders larger than 0.1
B(  0-N ,  1-C ) :   1.2740 B(  0-N ,  7-H ) :   0.9476 B(  0-N ,  8-H ) :   0.9380
B(  1-C ,  2-C ) :   1.4653 B(  1-C ,  3-S ) :   0.1003 B(  1-C ,  5-C ) :   1.2420
B(  2-C ,  3-S ) :   1.1083 B(  2-C ,  9-H ) :   0.9777 B(  3-S ,  4-C ) :   1.1366
B(  3-S ,  5-C ) :   0.1018 B(  4-C ,  5-C ) :   1.4680 B(  4-C , 10-H ) :   0.9690
B(  5-C ,  6-O ) :   1.1996 B(  6-O , 11-H ) :   0.9638

FINAL SINGLE POINT ENERGY      -682.742032068428

DIPOLE MOMENT
-------------
                                X             Y             Z
Electronic contribution:      3.43456       1.00875       0.01310
Nuclear contribution   :     -3.96186      -1.56950      -0.01475
                        -----------------------------------------
Total Dipole Moment    :     -0.52730      -0.56075      -0.00165
                        -----------------------------------------
Magnitude (a.u.)       :      0.76973
Magnitude (Debye)      :      1.95651

                             ****ORCA TERMINATED NORMALLY****
TOTAL RUN TIME: 0 days 0 hours 0 minutes 6 seconds 813 msec
