                         Program Version 3.0.3 - RELEASE   -
|  1> ! RI PBE def2-SVP def2-SVP/J NBO PAL2
|  2> % maxcore 2000
|  3> % output
|  4>     # printlevel mini
|  5>     print[ P_Basis ] 0
|  6>     print[ P_SCFInfo ] 1
|  7>     print[ P_SCFIterInfo ] 1
|  8>     print[ P_OrbEn ] 0
|  9>     print[ P_Cartesian ] 0
| 10> end
| 11> *xyz 0 1
| 12>  N        0.8604900000     0.1684240000     0.0524440000
| 13>  C        2.2232470000     0.0808200000     0.0591030000
| 14>  C        3.1340390000     1.0996090000     0.0635570000
| 15>  C        4.4844090000     0.6337540000     0.0699790000
| 16>  N        5.5459280000     1.5024990000     0.0750020000
| 17>  C        4.5725930000    -0.7293840000     0.0703070000
| 18>  S        3.0033600000    -1.4547050000     0.0627090000
| 19>  H        0.4138800000     1.0638880000     0.0513110000
| 20>  H        0.2862110000    -0.6502720000     0.0506220000
| 21>  H        2.8583840000     2.1471820000     0.0622880000
| 22>  H        5.3955560000     2.4904970000     0.0753240000
| 23>  H        6.4874110000     1.1659200000     0.0803170000
| 24>  H        5.4537020000    -1.3502210000     0.0744470000
| 25> *
| 26>
| 27>                          ****END OF INPUT****
 Total Charge           Charge          ....    0
 Multiplicity           Mult            ....    1
 Number of Electrons    NEL             ....   60
 Basis Dimension        Dim             ....  132

MULLIKEN ATOMIC CHARGES
-----------------------
   0 N :   -0.054050
   1 C :   -0.116872
   2 C :   -0.002632
   3 C :    0.065052
   4 N :   -0.063007
   5 C :   -0.192476
   6 S :    0.026290
   7 H :    0.109185
   8 H :    0.112024
   9 H :   -0.060375
  10 H :    0.097704
  11 H :    0.098415
  12 H :   -0.019256
Sum of atomic charges:   -0.0000000

LOEWDIN ATOMIC CHARGES
----------------------
   0 N :   -0.015580
   1 C :   -0.139889
   2 C :   -0.167713
   3 C :   -0.020689
   4 N :   -0.016131
   5 C :   -0.307582
   6 S :    0.366142
   7 H :    0.074081
   8 H :    0.069233
   9 H :    0.014841
  10 H :    0.065548
  11 H :    0.066270
  12 H :    0.011469

  Mayer bond orders larger than 0.1
B(  0-N ,  1-C ) :   1.2403 B(  0-N ,  7-H ) :   0.9513 B(  0-N ,  8-H ) :   0.9483
B(  1-C ,  2-C ) :   1.4350 B(  1-C ,  6-S ) :   1.1558 B(  2-C ,  3-C ) :   1.2003
B(  2-C ,  9-H ) :   0.9905 B(  3-C ,  4-N ) :   1.2407 B(  3-C ,  5-C ) :   1.5006
B(  4-N , 10-H ) :   0.9499 B(  4-N , 11-H ) :   0.9557 B(  5-C ,  6-S ) :   1.0279
B(  5-C , 12-H ) :   0.9753

FINAL SINGLE POINT ENERGY      -662.898953531246

DIPOLE MOMENT
-------------
                                X             Y             Z
Electronic contribution:     -1.20557      -4.12451      -0.00683
Nuclear contribution   :      0.86456       4.87779       0.00751
                        -----------------------------------------
Total Dipole Moment    :     -0.34100       0.75328       0.00068
                        -----------------------------------------
Magnitude (a.u.)       :      0.82687
Magnitude (Debye)      :      2.10174

                             ****ORCA TERMINATED NORMALLY****
TOTAL RUN TIME: 0 days 0 hours 0 minutes 7 seconds 14 msec
