                         Program Version 3.0.3 - RELEASE   -
|  1> ! RI PBE def2-SVP def2-SVP/J NBO PAL2
|  2> % maxcore 2000
|  3> % output
|  4>     # printlevel mini
|  5>     print[ P_Basis ] 0
|  6>     print[ P_SCFInfo ] 1
|  7>     print[ P_SCFIterInfo ] 1
|  8>     print[ P_OrbEn ] 0
|  9>     print[ P_Cartesian ] 0
| 10> end
| 11> *xyz 0 1
| 12>  N        0.9040280000    -0.0531240000     0.0302080000
| 13>  C        2.2717210000     0.0233540000     0.0366240000
| 14>  C        3.0043730000     1.1787840000     0.0386380000
| 15>  S        4.6973630000     0.8491470000     0.0467350000
| 16>  C        4.4145090000    -0.8471210000     0.0474850000
| 17>  O        5.4106210000    -1.7565420000     0.0530880000
| 18>  C        3.0902530000    -1.1477710000     0.0417680000
| 19>  H        0.3408280000     0.7732330000     0.0282240000
| 20>  H        0.4437670000    -0.9404680000     0.0310000000
| 21>  H        2.6545390000     2.1985520000     0.0358190000
| 22>  H        6.2639760000    -1.3149450000     0.0567990000
| 23>  H        2.7154220000    -2.1625880000     0.0412220000
| 24> *
| 25>
| 26>                          ****END OF INPUT****
 Total Charge           Charge          ....    0
 Multiplicity           Mult            ....    1
 Number of Electrons    NEL             ....   60
 Basis Dimension        Dim             ....  127

MULLIKEN ATOMIC CHARGES
-----------------------
   0 N :   -0.062689
   1 C :    0.056413
   2 C :   -0.182205
   3 S :    0.016443
   4 C :   -0.020168
   5 O :   -0.143848
   6 C :    0.003135
   7 H :    0.102430
   8 H :    0.102092
   9 H :   -0.010554
  10 H :    0.176031
  11 H :   -0.037081
Sum of atomic charges:   -0.0000000

LOEWDIN ATOMIC CHARGES
----------------------
   0 N :   -0.011315
   1 C :   -0.019736
   2 C :   -0.298044
   3 S :    0.363992
   4 C :   -0.128279
   5 O :   -0.028785
   6 C :   -0.142036
   7 H :    0.068414
   8 H :    0.068437
   9 H :    0.014001
  10 H :    0.087278
  11 H :    0.026075

  Mayer bond orders larger than 0.1
B(  0-N ,  1-C ) :   1.2532 B(  0-N ,  7-H ) :   0.9554 B(  0-N ,  8-H ) :   0.9499
B(  1-C ,  2-C ) :   1.4885 B(  1-C ,  6-C ) :   1.1901 B(  2-C ,  3-S ) :   1.0403
B(  2-C ,  9-H ) :   0.9754 B(  3-S ,  4-C ) :   1.1503 B(  4-C ,  5-O ) :   1.2042
B(  4-C ,  6-C ) :   1.4681 B(  5-O , 10-H ) :   0.9591 B(  6-C , 11-H ) :   1.0012

FINAL SINGLE POINT ENERGY      -682.737057976109

DIPOLE MOMENT
-------------
                                X             Y             Z
Electronic contribution:      4.91844       0.92842       0.02045
Nuclear contribution   :     -5.30964      -0.89520      -0.02020
                        -----------------------------------------
Total Dipole Moment    :     -0.39121       0.03322       0.00025
                        -----------------------------------------
Magnitude (a.u.)       :      0.39261
Magnitude (Debye)      :      0.99795

                             ****ORCA TERMINATED NORMALLY****
TOTAL RUN TIME: 0 days 0 hours 0 minutes 6 seconds 530 msec
