                         Program Version 3.0.3 - RELEASE   -
|  1> ! RI PBE def2-SVP def2-SVP/J NBO PAL2
|  2> % maxcore 2000
|  3> % output
|  4>     # printlevel mini
|  5>     print[ P_Basis ] 0
|  6>     print[ P_SCFInfo ] 1
|  7>     print[ P_SCFIterInfo ] 1
|  8>     print[ P_OrbEn ] 0
|  9>     print[ P_Cartesian ] 0
| 10> end
| 11> *xyz 0 1
| 12>  N        0.9304500000     0.3483970000    -0.0608200000
| 13>  C        2.3187630000     0.1297180000    -0.0746830000
| 14>  C        3.2256580000     1.1450100000     0.0598060000
| 15>  O        2.8748510000     2.4360360000     0.2165360000
| 16>  C        4.5738500000     0.7103750000     0.0186390000
| 17>  C        4.6640780000    -0.6378360000    -0.1477140000
| 18>  S        3.1349220000    -1.3870260000    -0.2550440000
| 19>  H        0.4695410000     0.1003870000    -0.9264470000
| 20>  H        0.4539230000    -0.1026010000     0.7091020000
| 21>  H        1.9060420000     2.4476400000     0.2086070000
| 22>  H        5.4214720000     1.3754250000     0.1091630000
| 23>  H        5.5615490000    -1.2336250000    -0.2130360000
| 24> *
| 25>
| 26>                          ****END OF INPUT****
 Total Charge           Charge          ....    0
 Multiplicity           Mult            ....    1
 Number of Electrons    NEL             ....   60
 Basis Dimension        Dim             ....  127

MULLIKEN ATOMIC CHARGES
-----------------------
   0 N :   -0.145595
   1 C :   -0.273091
   2 C :    0.159818
   3 O :   -0.149022
   4 C :    0.013370
   5 C :   -0.087171
   6 S :    0.077478
   7 H :    0.118944
   8 H :    0.119254
   9 H :    0.154161
  10 H :   -0.016034
  11 H :    0.027888
Sum of atomic charges:    0.0000000

LOEWDIN ATOMIC CHARGES
----------------------
   0 N :   -0.065287
   1 C :   -0.262861
   2 C :   -0.016352
   3 O :   -0.031880
   4 C :   -0.087152
   5 C :   -0.196066
   6 S :    0.393619
   7 H :    0.066595
   8 H :    0.066724
   9 H :    0.074661
  10 H :    0.033335
  11 H :    0.024665

  Mayer bond orders larger than 0.1
B(  0-N ,  1-C ) :   1.1806 B(  0-N ,  7-H ) :   0.9588 B(  0-N ,  8-H ) :   0.9591
B(  1-C ,  2-C ) :   1.4099 B(  1-C ,  6-S ) :   1.0730 B(  2-C ,  3-O ) :   1.2923
B(  2-C ,  4-C ) :   1.2610 B(  3-O ,  9-H ) :   0.9399 B(  4-C ,  5-C ) :   1.5118
B(  4-C ,  6-S ) :   0.1002 B(  4-C , 10-H ) :   0.9964 B(  5-C ,  6-S ) :   1.1849
B(  5-C , 11-H ) :   0.9665

FINAL SINGLE POINT ENERGY      -682.745128554255

DIPOLE MOMENT
-------------
                                X             Y             Z
Electronic contribution:      0.63811      -2.12144      -0.25615
Nuclear contribution   :     -1.35717       1.76630       0.20578
                        -----------------------------------------
Total Dipole Moment    :     -0.71906      -0.35514      -0.05037
                        -----------------------------------------
Magnitude (a.u.)       :      0.80356
Magnitude (Debye)      :      2.04249

                             ****ORCA TERMINATED NORMALLY****
TOTAL RUN TIME: 0 days 0 hours 0 minutes 6 seconds 262 msec
