                         Program Version 3.0.3 - RELEASE   -
|  1> ! RI PBE def2-SVP def2-SVP/J NBO PAL2
|  2> % maxcore 2000
|  3> % output
|  4>     # printlevel mini
|  5>     print[ P_Basis ] 0
|  6>     print[ P_SCFInfo ] 1
|  7>     print[ P_SCFIterInfo ] 1
|  8>     print[ P_OrbEn ] 0
|  9>     print[ P_Cartesian ] 0
| 10> end
| 11> *xyz 0 1
| 12>  N        0.8664980000     0.1091270000     0.0746940000
| 13>  C        2.0182250000     0.0519980000     0.0797380000
| 14>  C        3.4266790000    -0.0218890000     0.0850140000
| 15>  C        4.3172000000     1.0236790000     0.0869450000
| 16>  C        5.6558630000     0.5861960000     0.0924890000
| 17>  C        5.7587810000    -0.7765320000     0.0945940000
| 18>  S        4.2398340000    -1.5355100000     0.0898550000
| 19>  H        4.0039670000     2.0586290000     0.0844700000
| 20>  H        6.5097510000     1.2496590000     0.0948320000
| 21>  H        6.6578910000    -1.3743660000     0.0986990000
| 22> *
| 23>
| 24>                          ****END OF INPUT****
 Total Charge           Charge          ....    0
 Multiplicity           Mult            ....    1
 Number of Electrons    NEL             ....   56
 Basis Dimension        Dim             ....  117

MULLIKEN ATOMIC CHARGES
-----------------------
   0 N :    0.077212
   1 C :   -0.114596
   2 C :   -0.289106
   3 C :    0.106724
   4 C :    0.035217
   5 C :   -0.063986
   6 S :    0.191137
   7 H :    0.005708
   8 H :    0.007070
   9 H :    0.044621
Sum of atomic charges:    0.0000000

LOEWDIN ATOMIC CHARGES
----------------------
   0 N :   -0.048804
   1 C :   -0.058379
   2 C :   -0.235875
   3 C :   -0.026606
   4 C :   -0.061633
   5 C :   -0.182242
   6 S :    0.498138
   7 H :    0.042856
   8 H :    0.039016
   9 H :    0.033529

  Mayer bond orders larger than 0.1
B(  0-N ,  1-C ) :   2.9653 B(  1-C ,  2-C ) :   1.2145 B(  2-C ,  3-C ) :   1.4622
B(  2-C ,  5-C ) :   0.1218 B(  2-C ,  6-S ) :   1.1552 B(  3-C ,  4-C ) :   1.2798
B(  3-C ,  7-H ) :   0.9951 B(  4-C ,  5-C ) :   1.4987 B(  4-C ,  8-H ) :   0.9850
B(  5-C ,  6-S ) :   1.1928 B(  5-C ,  9-H ) :   0.9656

FINAL SINGLE POINT ENERGY      -644.472703932125

DIPOLE MOMENT
-------------
                                X             Y             Z
Electronic contribution:     -3.51436      -2.75962      -0.00940
Nuclear contribution   :      5.25870       2.76414       0.01627
                        -----------------------------------------
Total Dipole Moment    :      1.74434       0.00452       0.00687
                        -----------------------------------------
Magnitude (a.u.)       :      1.74436
Magnitude (Debye)      :      4.43380

                             ****ORCA TERMINATED NORMALLY****
TOTAL RUN TIME: 0 days 0 hours 0 minutes 5 seconds 568 msec
