                         Program Version 3.0.3 - RELEASE   -
|  1> ! RI PBE def2-SVP def2-SVP/J NBO PAL2
|  2> % maxcore 2000
|  3> % output
|  4>     # printlevel mini
|  5>     print[ P_Basis ] 0
|  6>     print[ P_SCFInfo ] 1
|  7>     print[ P_SCFIterInfo ] 1
|  8>     print[ P_OrbEn ] 0
|  9>     print[ P_Cartesian ] 0
| 10> end
| 11> *xyz 0 1
| 12>  N        1.4191000000    -0.3042230000    -0.8672990000
| 13>  C        2.6727830000    -0.0776180000    -0.1692220000
| 14>  C        3.0909080000     1.3545600000    -0.2897030000
| 15>  C        2.3016020000     2.4584360000    -0.4406800000
| 16>  C        3.0419730000     3.6662680000    -0.4887270000
| 17>  C        4.3840590000     3.4638250000    -0.3735590000
| 18>  S        4.7453480000     1.8025530000    -0.2168290000
| 19>  H        1.0941660000    -1.2501030000    -0.7147790000
| 20>  H        1.5429790000    -0.1782670000    -1.8645580000
| 21>  H        3.5009040000    -0.7202720000    -0.5062890000
| 22>  H        2.5110270000    -0.3193350000     0.8877880000
| 23>  H        1.2246280000     2.3903450000    -0.5150850000
| 24>  H        2.5962480000     4.6456600000    -0.6050020000
| 25>  H        5.1767640000     4.1961720000    -0.3776540000
| 26> *
| 27>
| 28>                          ****END OF INPUT****
 Total Charge           Charge          ....    0
 Multiplicity           Mult            ....    1
 Number of Electrons    NEL             ....   60
 Basis Dimension        Dim             ....  137

MULLIKEN ATOMIC CHARGES
-----------------------
   0 N :   -0.213738
   1 C :    0.195286
   2 C :   -0.268631
   3 C :    0.033570
   4 C :    0.034234
   5 C :   -0.092330
   6 S :    0.097331
   7 H :    0.091540
   8 H :    0.096626
   9 H :   -0.006432
  10 H :    0.029903
  11 H :   -0.013526
  12 H :   -0.012318
  13 H :    0.028486
Sum of atomic charges:   -0.0000000

LOEWDIN ATOMIC CHARGES
----------------------
   0 N :   -0.101640
   1 C :    0.000868
   2 C :   -0.209603
   3 C :   -0.074373
   4 C :   -0.071788
   5 C :   -0.209764
   6 S :    0.433942
   7 H :    0.055040
   8 H :    0.055418
   9 H :    0.004523
  10 H :    0.034305
  11 H :    0.030108
  12 H :    0.028926
  13 H :    0.024039

  Mayer bond orders larger than 0.1
B(  0-N ,  1-C ) :   1.1150 B(  0-N ,  7-H ) :   0.9615 B(  0-N ,  8-H ) :   0.9695
B(  1-C ,  2-C ) :   1.0451 B(  1-C ,  9-H ) :   0.9133 B(  1-C , 10-H ) :   0.9100
B(  2-C ,  3-C ) :   1.5506 B(  2-C ,  5-C ) :   0.1022 B(  2-C ,  6-S ) :   1.1612
B(  3-C ,  4-C ) :   1.2478 B(  3-C , 11-H ) :   0.9936 B(  4-C ,  5-C ) :   1.5374
B(  4-C , 12-H ) :   0.9902 B(  5-C ,  6-S ) :   1.1652 B(  5-C , 13-H ) :   0.9682

FINAL SINGLE POINT ENERGY      -646.872233204972

DIPOLE MOMENT
-------------
                                X             Y             Z
Electronic contribution:      5.28793       2.50346       0.69815
Nuclear contribution   :     -5.30595      -2.98285      -0.92234
                        -----------------------------------------
Total Dipole Moment    :     -0.01802      -0.47940      -0.22419
                        -----------------------------------------
Magnitude (a.u.)       :      0.52953
Magnitude (Debye)      :      1.34596

                             ****ORCA TERMINATED NORMALLY****
TOTAL RUN TIME: 0 days 0 hours 0 minutes 6 seconds 403 msec
