                         Program Version 3.0.3 - RELEASE   -
|  1> ! RI PBE def2-SVP def2-SVP/J NBO PAL2
|  2> % maxcore 2000
|  3> % output
|  4>     # printlevel mini
|  5>     print[ P_Basis ] 0
|  6>     print[ P_SCFInfo ] 1
|  7>     print[ P_SCFIterInfo ] 1
|  8>     print[ P_OrbEn ] 0
|  9>     print[ P_Cartesian ] 0
| 10> end
| 11> *xyz 0 1
| 12>  N        0.9880480000     0.0925720000     0.0300830000
| 13>  C        2.1403200000     0.0827790000     0.0336930000
| 14>  C        3.5515110000     0.0521570000     0.0385070000
| 15>  C        4.4230470000     1.1147360000     0.0405650000
| 16>  C        5.7500090000     0.6444360000     0.0454110000
| 17>  N        5.9072500000    -0.6611580000     0.0471360000
| 18>  S        4.4587960000    -1.3966450000     0.0431260000
| 19>  H        4.1205380000     2.1519800000     0.0386060000
| 20>  H        6.6306690000     1.2761520000     0.0477730000
| 21> *
| 22>
| 23>                          ****END OF INPUT****
 Total Charge           Charge          ....    0
 Multiplicity           Mult            ....    1
 Number of Electrons    NEL             ....   56
 Basis Dimension        Dim             ....  112

MULLIKEN ATOMIC CHARGES
-----------------------
   0 N :    0.094635
   1 C :   -0.103723
   2 C :   -0.287828
   3 C :    0.044872
   4 C :    0.107640
   5 N :   -0.269561
   6 S :    0.369995
   7 H :    0.014548
   8 H :    0.029424
Sum of atomic charges:   -0.0000000

LOEWDIN ATOMIC CHARGES
----------------------
   0 N :   -0.031714
   1 C :   -0.057181
   2 C :   -0.234378
   3 C :   -0.050194
   4 C :   -0.023423
   5 N :   -0.247785
   6 S :    0.563209
   7 H :    0.047083
   8 H :    0.034383

  Mayer bond orders larger than 0.1
B(  0-N ,  1-C ) :   2.9649 B(  1-C ,  2-C ) :   1.2002 B(  2-C ,  3-C ) :   1.4669
B(  2-C ,  5-N ) :   0.1814 B(  2-C ,  6-S ) :   1.1471 B(  3-C ,  4-C ) :   1.2418
B(  3-C ,  7-H ) :   0.9907 B(  4-C ,  5-N ) :   1.5630 B(  4-C ,  8-H ) :   0.9706
B(  5-N ,  6-S ) :   1.2265

FINAL SINGLE POINT ENERGY      -660.487822246703

DIPOLE MOMENT
-------------
                                X             Y             Z
Electronic contribution:     -1.66902      -3.23614      -0.00257
Nuclear contribution   :      2.55524       3.70125       0.00511
                        -----------------------------------------
Total Dipole Moment    :      0.88622       0.46511       0.00254
                        -----------------------------------------
Magnitude (a.u.)       :      1.00086
Magnitude (Debye)      :      2.54398

                             ****ORCA TERMINATED NORMALLY****
TOTAL RUN TIME: 0 days 0 hours 0 minutes 5 seconds 713 msec
