                         Program Version 3.0.3 - RELEASE   -
|  1> ! RI PBE def2-SVP def2-SVP/J NBO PAL2
|  2> % maxcore 2000
|  3> % output
|  4>     # printlevel mini
|  5>     print[ P_Basis ] 0
|  6>     print[ P_SCFInfo ] 1
|  7>     print[ P_SCFIterInfo ] 1
|  8>     print[ P_OrbEn ] 0
|  9>     print[ P_Cartesian ] 0
| 10> end
| 11> *xyz 0 1
| 12>  N        1.6512660000     0.5892940000    -0.7513110000
| 13>  C        2.3589610000    -0.2309180000     0.2152790000
| 14>  C        2.9783340000    -1.4182440000    -0.4501600000
| 15>  C        3.4134560000    -1.5451020000    -1.7423650000
| 16>  C        3.9590940000    -2.8296770000    -1.9563300000
| 17>  N        3.9580770000    -3.6532860000    -0.9334290000
| 18>  S        3.2779590000    -2.8926650000     0.3485960000
| 19>  H        1.3215950000     1.4422040000    -0.3185200000
| 20>  H        0.8431630000     0.0964230000    -1.1113730000
| 21>  H        1.7413730000    -0.5750040000     1.0589620000
| 22>  H        3.1571620000     0.3800500000     0.6514930000
| 23>  H        3.3384680000    -0.7596320000    -2.4808520000
| 24>  H        4.3728910000    -3.1769530000    -2.8972910000
| 25> *
| 26>
| 27>                          ****END OF INPUT****
 Total Charge           Charge          ....    0
 Multiplicity           Mult            ....    1
 Number of Electrons    NEL             ....   60
 Basis Dimension        Dim             ....  132

MULLIKEN ATOMIC CHARGES
-----------------------
   0 N :   -0.212769
   1 C :    0.195982
   2 C :   -0.267661
   3 C :   -0.018358
   4 C :    0.092427
   5 N :   -0.292387
   6 S :    0.266392
   7 H :    0.095264
   8 H :    0.097274
   9 H :    0.000663
  10 H :    0.036676
  11 H :   -0.003545
  12 H :    0.010041
Sum of atomic charges:   -0.0000000

LOEWDIN ATOMIC CHARGES
----------------------
   0 N :   -0.100839
   1 C :    0.000777
   2 C :   -0.208170
   3 C :   -0.095977
   4 C :   -0.037245
   5 N :   -0.274400
   6 S :    0.495285
   7 H :    0.057180
   8 H :    0.056674
   9 H :    0.007876
  10 H :    0.040230
  11 H :    0.034587
  12 H :    0.024022

  Mayer bond orders larger than 0.1
B(  0-N ,  1-C ) :   1.1159 B(  0-N ,  7-H ) :   0.9604 B(  0-N ,  8-H ) :   0.9690
B(  1-C ,  2-C ) :   1.0347 B(  1-C ,  9-H ) :   0.9156 B(  1-C , 10-H ) :   0.9057
B(  2-C ,  3-C ) :   1.5324 B(  2-C ,  5-N ) :   0.1551 B(  2-C ,  6-S ) :   1.1712
B(  3-C ,  4-C ) :   1.2311 B(  3-C , 11-H ) :   0.9882 B(  4-C ,  5-N ) :   1.5937
B(  4-C , 12-H ) :   0.9726 B(  5-N ,  6-S ) :   1.1982

FINAL SINGLE POINT ENERGY      -662.891486033384

DIPOLE MOMENT
-------------
                                X             Y             Z
Electronic contribution:      2.71038      -6.91719       1.84975
Nuclear contribution   :     -3.46444       7.98615      -1.61663
                        -----------------------------------------
Total Dipole Moment    :     -0.75406       1.06896       0.23313
                        -----------------------------------------
Magnitude (a.u.)       :      1.32877
Magnitude (Debye)      :      3.37747

                             ****ORCA TERMINATED NORMALLY****
TOTAL RUN TIME: 0 days 0 hours 0 minutes 6 seconds 318 msec
