                         Program Version 3.0.3 - RELEASE   -
|  1> ! RI PBE def2-SVP def2-SVP/J NBO PAL2
|  2> % maxcore 2000
|  3> % output
|  4>     # printlevel mini
|  5>     print[ P_Basis ] 0
|  6>     print[ P_SCFInfo ] 1
|  7>     print[ P_SCFIterInfo ] 1
|  8>     print[ P_OrbEn ] 0
|  9>     print[ P_Cartesian ] 0
| 10> end
| 11> *xyz 0 1
| 12>  N        0.8892900000     0.0699550000    -0.0560110000
| 13>  C        2.0412260000     0.0899570000    -0.0517840000
| 14>  C        3.4613740000     0.1066060000    -0.0470580000
| 15>  C        4.2033490000     1.2614510000    -0.0454890000
| 16>  S        5.8630280000     0.9237560000    -0.0396500000
| 17>  C        5.5979330000    -0.7622700000    -0.0392180000
| 18>  C        4.2723110000    -1.0632310000    -0.0434370000
| 19>  H        3.8367030000     2.2761670000    -0.0475140000
| 20>  H        6.4336880000    -1.4449250000    -0.0358750000
| 21>  H        3.8737880000    -2.0680740000    -0.0439850000
| 22> *
| 23>
| 24>                          ****END OF INPUT****
 Total Charge           Charge          ....    0
 Multiplicity           Mult            ....    1
 Number of Electrons    NEL             ....   56
 Basis Dimension        Dim             ....  117

MULLIKEN ATOMIC CHARGES
-----------------------
   0 N :    0.078934
   1 C :   -0.125008
   2 C :   -0.154197
   3 C :   -0.040554
   4 S :    0.135943
   5 C :   -0.090478
   6 C :    0.103401
   7 H :    0.040545
   8 H :    0.046756
   9 H :    0.004658
Sum of atomic charges:   -0.0000000

LOEWDIN ATOMIC CHARGES
----------------------
   0 N :   -0.054048
   1 C :   -0.036709
   2 C :   -0.111879
   3 C :   -0.170291
   4 S :    0.489168
   5 C :   -0.191767
   6 C :   -0.038696
   7 H :    0.037823
   8 H :    0.033900
   9 H :    0.042497

  Mayer bond orders larger than 0.1
B(  0-N ,  1-C ) :   2.9945 B(  1-C ,  2-C ) :   1.1554 B(  2-C ,  3-C ) :   1.4783
B(  2-C ,  4-S ) :   0.1124 B(  2-C ,  6-C ) :   1.2682 B(  3-C ,  4-S ) :   1.1951
B(  3-C ,  7-H ) :   0.9716 B(  4-S ,  5-C ) :   1.1872 B(  5-C ,  6-C ) :   1.5195
B(  5-C ,  8-H ) :   0.9605 B(  6-C ,  9-H ) :   0.9973

FINAL SINGLE POINT ENERGY      -644.472488820063

DIPOLE MOMENT
-------------
                                X             Y             Z
Electronic contribution:     -0.00588       1.79507      -0.00131
Nuclear contribution   :      1.60229      -1.82436       0.00691
                        -----------------------------------------
Total Dipole Moment    :      1.59641      -0.02929       0.00560
                        -----------------------------------------
Magnitude (a.u.)       :      1.59669
Magnitude (Debye)      :      4.05847

                             ****ORCA TERMINATED NORMALLY****
TOTAL RUN TIME: 0 days 0 hours 0 minutes 6 seconds 59 msec
