                         Program Version 3.0.3 - RELEASE   -
|  1> ! RI PBE def2-SVP def2-SVP/J NBO PAL2
|  2> % maxcore 2000
|  3> % output
|  4>     # printlevel mini
|  5>     print[ P_Basis ] 0
|  6>     print[ P_SCFInfo ] 1
|  7>     print[ P_SCFIterInfo ] 1
|  8>     print[ P_OrbEn ] 0
|  9>     print[ P_Cartesian ] 0
| 10> end
| 11> *xyz 0 1
| 12>  N        3.5073780000     0.6068560000    -0.6698230000
| 13>  C        2.5752600000    -0.3710470000    -0.1367460000
| 14>  C        3.0273490000    -0.9015820000     1.1904820000
| 15>  C        3.9494330000    -0.2933550000     1.9934520000
| 16>  S        4.2046880000    -1.1611430000     3.4392440000
| 17>  C        3.0768650000    -2.3601910000     2.9960690000
| 18>  C        2.5302820000    -2.0982500000     1.7759860000
| 19>  H        3.1395950000     1.0266300000    -1.5132650000
| 20>  H        4.3847150000     0.1613710000    -0.9105780000
| 21>  H        2.3904140000    -1.2258470000    -0.8064550000
| 22>  H        1.6071930000     0.1274840000    -0.0088470000
| 23>  H        4.4736000000     0.6287990000     1.7959670000
| 24>  H        2.8804900000    -3.1969980000     3.6489410000
| 25>  H        1.7962490000    -2.7396360000     1.3034650000
| 26> *
| 27>
| 28>                          ****END OF INPUT****
 Total Charge           Charge          ....    0
 Multiplicity           Mult            ....    1
 Number of Electrons    NEL             ....   60
 Basis Dimension        Dim             ....  137

MULLIKEN ATOMIC CHARGES
-----------------------
   0 N :   -0.211074
   1 C :    0.180923
   2 C :   -0.104372
   3 C :   -0.108953
   4 S :    0.089778
   5 C :   -0.098190
   6 C :    0.027908
   7 H :    0.090667
   8 H :    0.093294
   9 H :   -0.005867
  10 H :    0.021531
  11 H :    0.017069
  12 H :    0.027321
  13 H :   -0.020035
Sum of atomic charges:   -0.0000000

LOEWDIN ATOMIC CHARGES
----------------------
   0 N :   -0.103562
   1 C :    0.014886
   2 C :   -0.086196
   3 C :   -0.208784
   4 S :    0.441291
   5 C :   -0.206258
   6 C :   -0.075751
   7 H :    0.054794
   8 H :    0.053854
   9 H :    0.007580
  10 H :    0.033633
  11 H :    0.023398
  12 H :    0.024071
  13 H :    0.027043

  Mayer bond orders larger than 0.1
B(  0-N ,  1-C ) :   1.1164 B(  0-N ,  7-H ) :   0.9620 B(  0-N ,  8-H ) :   0.9669
B(  1-C ,  2-C ) :   1.0443 B(  1-C ,  9-H ) :   0.9156 B(  1-C , 10-H ) :   0.9048
B(  2-C ,  3-C ) :   1.5510 B(  2-C ,  6-C ) :   1.2810 B(  3-C ,  4-S ) :   1.1575
B(  3-C , 11-H ) :   0.9547 B(  4-S ,  5-C ) :   1.1918 B(  5-C ,  6-C ) :   1.5231
B(  5-C , 12-H ) :   0.9647 B(  6-C , 13-H ) :   0.9944

FINAL SINGLE POINT ENERGY      -646.872428615001

DIPOLE MOMENT
-------------
                                X             Y             Z
Electronic contribution:      2.92118      -1.47738       7.59460
Nuclear contribution   :     -3.07501       1.29010      -8.27838
                        -----------------------------------------
Total Dipole Moment    :     -0.15383      -0.18728      -0.68378
                        -----------------------------------------
Magnitude (a.u.)       :      0.72546
Magnitude (Debye)      :      1.84397

                             ****ORCA TERMINATED NORMALLY****
TOTAL RUN TIME: 0 days 0 hours 0 minutes 6 seconds 640 msec
