                         Program Version 3.0.3 - RELEASE   -
|  1> ! RI PBE def2-SVP def2-SVP/J NBO PAL2
|  2> % maxcore 2000
|  3> % output
|  4>     # printlevel mini
|  5>     print[ P_Basis ] 0
|  6>     print[ P_SCFInfo ] 1
|  7>     print[ P_SCFIterInfo ] 1
|  8>     print[ P_OrbEn ] 0
|  9>     print[ P_Cartesian ] 0
| 10> end
| 11> *xyz 0 1
| 12>  N        1.0088740000    -0.1190570000    -0.0167890000
| 13>  C        2.1577130000    -0.0552090000    -0.0163990000
| 14>  C        3.5863660000    -0.0277880000    -0.0158890000
| 15>  N        4.2181480000     1.1318970000    -0.0152520000
| 16>  S        5.8184330000     0.8562450000    -0.0147950000
| 17>  C        5.7106960000    -0.8333300000    -0.0154430000
| 18>  C        4.3938430000    -1.1914790000    -0.0160260000
| 19>  H        6.5788000000    -1.4759710000    -0.0153740000
| 20>  H        4.0146280000    -2.2030190000    -0.0165220000
| 21> *
| 22>
| 23>                          ****END OF INPUT****
 Total Charge           Charge          ....    0
 Multiplicity           Mult            ....    1
 Number of Electrons    NEL             ....   56
 Basis Dimension        Dim             ....  112

MULLIKEN ATOMIC CHARGES
-----------------------
   0 N :    0.102564
   1 C :   -0.061214
   2 C :   -0.180393
   3 N :   -0.247170
   4 S :    0.322277
   5 C :   -0.069688
   6 C :    0.076484
   7 H :    0.047823
   8 H :    0.009318
Sum of atomic charges:   -0.0000000

LOEWDIN ATOMIC CHARGES
----------------------
   0 N :   -0.031902
   1 C :   -0.033973
   2 C :   -0.086529
   3 N :   -0.243985
   4 S :    0.556689
   5 C :   -0.188622
   6 C :   -0.056022
   7 H :    0.037938
   8 H :    0.046404

  Mayer bond orders larger than 0.1
B(  0-N ,  1-C ) :   3.0244 B(  1-C ,  2-C ) :   1.1266 B(  2-C ,  3-N ) :   1.5811
B(  2-C ,  4-S ) :   0.1240 B(  2-C ,  6-C ) :   1.2600 B(  3-N ,  4-S ) :   1.2211
B(  3-N ,  5-C ) :   0.1259 B(  4-S ,  5-C ) :   1.2013 B(  5-C ,  6-C ) :   1.5077
B(  5-C ,  7-H ) :   0.9520 B(  6-C ,  8-H ) :   0.9876

FINAL SINGLE POINT ENERGY      -660.485921663975

DIPOLE MOMENT
-------------
                                X             Y             Z
Electronic contribution:     -0.20030       2.89190       0.00095
Nuclear contribution   :      2.02342      -3.68358      -0.00063
                        -----------------------------------------
Total Dipole Moment    :      1.82312      -0.79168       0.00032
                        -----------------------------------------
Magnitude (a.u.)       :      1.98759
Magnitude (Debye)      :      5.05205

                             ****ORCA TERMINATED NORMALLY****
TOTAL RUN TIME: 0 days 0 hours 0 minutes 5 seconds 617 msec
