                         Program Version 3.0.3 - RELEASE   -
|  1> ! RI PBE def2-SVP def2-SVP/J NBO PAL2
|  2> % maxcore 2000
|  3> % output
|  4>     # printlevel mini
|  5>     print[ P_Basis ] 0
|  6>     print[ P_SCFInfo ] 1
|  7>     print[ P_SCFIterInfo ] 1
|  8>     print[ P_OrbEn ] 0
|  9>     print[ P_Cartesian ] 0
| 10> end
| 11> *xyz 0 1
| 12>  N        1.3596550000    -0.8266400000     0.1749420000
| 13>  C        2.2709550000     0.2426190000    -0.2009680000
| 14>  C        3.0889220000    -0.1410440000    -1.3974660000
| 15>  N        4.3375980000     0.2640280000    -1.4866010000
| 16>  S        4.9819490000    -0.2527990000    -2.8995910000
| 17>  C        3.5869100000    -1.0542570000    -3.4308600000
| 18>  C        2.6097260000    -0.9088170000    -2.4898230000
| 19>  H        0.7166540000    -0.5089580000     0.8882000000
| 20>  H        1.8725090000    -1.6102530000     0.5604460000
| 21>  H        2.9628690000     0.5659840000     0.5871780000
| 22>  H        1.6659470000     1.1168880000    -0.4670910000
| 23>  H        3.5390960000    -1.5799500000    -4.3735330000
| 24>  H        1.6119890000    -1.3191820000    -2.5464430000
| 25> *
| 26>
| 27>                          ****END OF INPUT****
 Total Charge           Charge          ....    0
 Multiplicity           Mult            ....    1
 Number of Electrons    NEL             ....   60
 Basis Dimension        Dim             ....  132

MULLIKEN ATOMIC CHARGES
-----------------------
   0 N :   -0.221357
   1 C :    0.206076
   2 C :   -0.127030
   3 N :   -0.292822
   4 S :    0.260351
   5 C :   -0.081426
   6 C :    0.021006
   7 H :    0.093648
   8 H :    0.092349
   9 H :    0.001113
  10 H :    0.025243
  11 H :    0.032147
  12 H :   -0.009299
Sum of atomic charges:   -0.0000000

LOEWDIN ATOMIC CHARGES
----------------------
   0 N :   -0.105508
   1 C :    0.008333
   2 C :   -0.060417
   3 N :   -0.280253
   4 S :    0.499884
   5 C :   -0.201340
   6 C :   -0.083241
   7 H :    0.055445
   8 H :    0.054927
   9 H :    0.012941
  10 H :    0.036674
  11 H :    0.028306
  12 H :    0.034249

  Mayer bond orders larger than 0.1
B(  0-N ,  1-C ) :   1.1009 B(  0-N ,  7-H ) :   0.9635 B(  0-N ,  8-H ) :   0.9727
B(  1-C ,  2-C ) :   1.0415 B(  1-C ,  9-H ) :   0.9109 B(  1-C , 10-H ) :   0.9071
B(  2-C ,  3-N ) :   1.6002 B(  2-C ,  6-C ) :   1.2510 B(  3-N ,  4-S ) :   1.1929
B(  3-N ,  5-C ) :   0.1338 B(  4-S ,  5-C ) :   1.1944 B(  5-C ,  6-C ) :   1.5139
B(  5-C , 11-H ) :   0.9556 B(  6-C , 12-H ) :   0.9861

FINAL SINGLE POINT ENERGY      -662.894026971209

DIPOLE MOMENT
-------------
                                X             Y             Z
Electronic contribution:      7.20046       0.72216      -5.11539
Nuclear contribution   :     -7.71564      -1.07525       5.23205
                        -----------------------------------------
Total Dipole Moment    :     -0.51519      -0.35309       0.11666
                        -----------------------------------------
Magnitude (a.u.)       :      0.63537
Magnitude (Debye)      :      1.61499

                             ****ORCA TERMINATED NORMALLY****
TOTAL RUN TIME: 0 days 0 hours 0 minutes 6 seconds 304 msec
