                         Program Version 3.0.3 - RELEASE   -
|  1> ! RI PBE def2-SVP def2-SVP/J NBO PAL2
|  2> % maxcore 2000
|  3> % output
|  4>     # printlevel mini
|  5>     print[ P_Basis ] 0
|  6>     print[ P_SCFInfo ] 1
|  7>     print[ P_SCFIterInfo ] 1
|  8>     print[ P_OrbEn ] 0
|  9>     print[ P_Cartesian ] 0
| 10> end
| 11> *xyz 0 1
| 12>  N        0.9279420000     0.2354270000    -0.0690240000
| 13>  C        2.0778020000     0.1546870000    -0.0654300000
| 14>  C        3.4838040000     0.0573290000    -0.0610430000
| 15>  C        4.3981090000     1.0802170000    -0.0606120000
| 16>  N        5.6970910000     0.7017810000    -0.0559130000
| 17>  C        5.7938830000    -0.5939380000    -0.0527350000
| 18>  S        4.3121790000    -1.4470980000    -0.0552500000
| 19>  H        4.1340670000     2.1292440000    -0.0637310000
| 20>  H        6.7357050000    -1.1272500000    -0.0487520000
| 21> *
| 22>
| 23>                          ****END OF INPUT****
 Total Charge           Charge          ....    0
 Multiplicity           Mult            ....    1
 Number of Electrons    NEL             ....   56
 Basis Dimension        Dim             ....  112

MULLIKEN ATOMIC CHARGES
-----------------------
   0 N :    0.090029
   1 C :   -0.106884
   2 C :   -0.296316
   3 C :    0.131765
   4 N :   -0.087329
   5 C :    0.003329
   6 S :    0.184199
   7 H :    0.020113
   8 H :    0.061094
Sum of atomic charges:   -0.0000000

LOEWDIN ATOMIC CHARGES
----------------------
   0 N :   -0.036114
   1 C :   -0.057092
   2 C :   -0.247131
   3 C :    0.001954
   4 N :   -0.074978
   5 C :   -0.136774
   6 S :    0.482757
   7 H :    0.038644
   8 H :    0.028734

  Mayer bond orders larger than 0.1
B(  0-N ,  1-C ) :   2.9631 B(  1-C ,  2-C ) :   1.2185 B(  2-C ,  3-C ) :   1.4590
B(  2-C ,  5-C ) :   0.1177 B(  2-C ,  6-S ) :   1.1543 B(  3-C ,  4-N ) :   1.3950
B(  3-C ,  7-H ) :   0.9908 B(  4-N ,  5-C ) :   1.6445 B(  4-N ,  6-S ) :   0.1223
B(  5-C ,  6-S ) :   1.1688 B(  5-C ,  8-H ) :   0.9560

FINAL SINGLE POINT ENERGY      -660.496515283438

DIPOLE MOMENT
-------------
                                X             Y             Z
Electronic contribution:     -1.71497      -1.88332      -0.00091
Nuclear contribution   :      2.83297       1.38987       0.00532
                        -----------------------------------------
Total Dipole Moment    :      1.11800      -0.49344       0.00441
                        -----------------------------------------
Magnitude (a.u.)       :      1.22206
Magnitude (Debye)      :      3.10622

                             ****ORCA TERMINATED NORMALLY****
TOTAL RUN TIME: 0 days 0 hours 0 minutes 5 seconds 571 msec
