                         Program Version 3.0.3 - RELEASE   -
|  1> ! RI PBE def2-SVP def2-SVP/J NBO PAL2
|  2> % maxcore 2000
|  3> % output
|  4>     # printlevel mini
|  5>     print[ P_Basis ] 0
|  6>     print[ P_SCFInfo ] 1
|  7>     print[ P_SCFIterInfo ] 1
|  8>     print[ P_OrbEn ] 0
|  9>     print[ P_Cartesian ] 0
| 10> end
| 11> *xyz 0 1
| 12>  N        3.0815280000     0.4511200000    -1.0862840000
| 13>  C        2.4059910000    -0.2845420000    -0.0332540000
| 14>  C        2.8505120000     0.2007870000     1.3100460000
| 15>  C        3.4407680000     1.3850700000     1.6385080000
| 16>  N        3.7285040000     1.5728410000     2.9599910000
| 17>  C        3.3645490000     0.5431330000     3.6530830000
| 18>  S        2.6542750000    -0.7274080000     2.7399170000
| 19>  H        2.6938910000     0.2140150000    -1.9897280000
| 20>  H        4.0676590000     0.2216160000    -1.1046010000
| 21>  H        2.5428250000    -1.3757760000    -0.0843260000
| 22>  H        1.3297570000    -0.1080240000    -0.1406970000
| 23>  H        3.6801420000     2.1549820000     0.9182660000
| 24>  H        3.4839000000     0.4568850000     4.7251790000
| 25> *
| 26>
| 27>                          ****END OF INPUT****
 Total Charge           Charge          ....    0
 Multiplicity           Mult            ....    1
 Number of Electrons    NEL             ....   60
 Basis Dimension        Dim             ....  132

MULLIKEN ATOMIC CHARGES
-----------------------
   0 N :   -0.209060
   1 C :    0.179070
   2 C :   -0.272898
   3 C :    0.067941
   4 N :   -0.101772
   5 C :   -0.029118
   6 S :    0.086172
   7 H :    0.093084
   8 H :    0.098039
   9 H :    0.006970
  10 H :    0.038097
  11 H :   -0.003123
  12 H :    0.046599
Sum of atomic charges:    0.0000000

LOEWDIN ATOMIC CHARGES
----------------------
   0 N :   -0.098830
   1 C :    0.000877
   2 C :   -0.220650
   3 C :   -0.046892
   4 N :   -0.090050
   5 C :   -0.162640
   6 S :    0.414177
   7 H :    0.056936
   8 H :    0.056400
   9 H :    0.008971
  10 H :    0.038033
  11 H :    0.024784
  12 H :    0.018884

  Mayer bond orders larger than 0.1
B(  0-N ,  1-C ) :   1.1232 B(  0-N ,  7-H ) :   0.9612 B(  0-N ,  8-H ) :   0.9673
B(  1-C ,  2-C ) :   1.0371 B(  1-C ,  9-H ) :   0.9186 B(  1-C , 10-H ) :   0.9095
B(  2-C ,  3-C ) :   1.5611 B(  2-C ,  6-S ) :   1.1595 B(  3-C ,  4-N ) :   1.3487
B(  3-C , 11-H ) :   0.9799 B(  4-N ,  5-C ) :   1.6901 B(  4-N ,  6-S ) :   0.1313
B(  5-C ,  6-S ) :   1.1414 B(  5-C , 12-H ) :   0.9581

FINAL SINGLE POINT ENERGY      -662.898591150630

DIPOLE MOMENT
-------------
                                X             Y             Z
Electronic contribution:      0.00617      -1.00232       6.76178
Nuclear contribution   :     -0.21426       0.08577      -7.48845
                        -----------------------------------------
Total Dipole Moment    :     -0.20809      -0.91656      -0.72667
                        -----------------------------------------
Magnitude (a.u.)       :      1.18803
Magnitude (Debye)      :      3.01974

                             ****ORCA TERMINATED NORMALLY****
TOTAL RUN TIME: 0 days 0 hours 0 minutes 6 seconds 503 msec
