                         Program Version 3.0.3 - RELEASE   -
|  1> ! RI PBE def2-SVP def2-SVP/J NBO PAL2
|  2> % maxcore 2000
|  3> % output
|  4>     # printlevel mini
|  5>     print[ P_Basis ] 0
|  6>     print[ P_SCFInfo ] 1
|  7>     print[ P_SCFIterInfo ] 1
|  8>     print[ P_OrbEn ] 0
|  9>     print[ P_Cartesian ] 0
| 10> end
| 11> *xyz 0 1
| 12>  N        0.9983310000    -0.0827800000     0.0388730000
| 13>  C        2.1497730000    -0.0529110000     0.0417170000
| 14>  C        3.5676880000    -0.0296960000     0.0449930000
| 15>  C        4.3403410000     1.1082730000     0.0466980000
| 16>  S        5.9617150000     0.6540740000     0.0504750000
| 17>  N        5.6872730000    -0.9592400000     0.0499960000
| 18>  C        4.3992400000    -1.1828790000     0.0469920000
| 19>  H        4.0048050000     2.1347580000     0.0458440000
| 20>  H        4.0316440000    -2.2023990000     0.0462220000
| 21> *
| 22>
| 23>                          ****END OF INPUT****
 Total Charge           Charge          ....    0
 Multiplicity           Mult            ....    1
 Number of Electrons    NEL             ....   56
 Basis Dimension        Dim             ....  112

MULLIKEN ATOMIC CHARGES
-----------------------
   0 N :    0.092824
   1 C :   -0.114984
   2 C :   -0.217532
   3 C :   -0.028525
   4 S :    0.310614
   5 N :   -0.273013
   6 C :    0.157210
   7 H :    0.046949
   8 H :    0.026457
Sum of atomic charges:   -0.0000000

LOEWDIN ATOMIC CHARGES
----------------------
   0 N :   -0.042432
   1 C :   -0.038714
   2 C :   -0.134424
   3 C :   -0.166485
   4 S :    0.554526
   5 N :   -0.250301
   6 C :   -0.002332
   7 H :    0.042239
   8 H :    0.037923

  Mayer bond orders larger than 0.1
B(  0-N ,  1-C ) :   2.9924 B(  1-C ,  2-C ) :   1.1638 B(  2-C ,  3-C ) :   1.4756
B(  2-C ,  4-S ) :   0.1302 B(  2-C ,  6-C ) :   1.2257 B(  3-C ,  4-S ) :   1.2049
B(  3-C ,  5-N ) :   0.1201 B(  3-C ,  7-H ) :   0.9657 B(  4-S ,  5-N ) :   1.2077
B(  5-N ,  6-C ) :   1.5968 B(  6-C ,  8-H ) :   0.9844

FINAL SINGLE POINT ENERGY      -660.488438474685

DIPOLE MOMENT
-------------
                                X             Y             Z
Electronic contribution:      1.40476       0.73961       0.00323
Nuclear contribution   :     -0.46833      -0.16267      -0.00104
                        -----------------------------------------
Total Dipole Moment    :      0.93643       0.57694       0.00219
                        -----------------------------------------
Magnitude (a.u.)       :      1.09989
Magnitude (Debye)      :      2.79571

                             ****ORCA TERMINATED NORMALLY****
TOTAL RUN TIME: 0 days 0 hours 0 minutes 5 seconds 787 msec
