                         Program Version 3.0.3 - RELEASE   -
|  1> ! RI PBE def2-SVP def2-SVP/J NBO PAL2
|  2> % maxcore 2000
|  3> % output
|  4>     # printlevel mini
|  5>     print[ P_Basis ] 0
|  6>     print[ P_SCFInfo ] 1
|  7>     print[ P_SCFIterInfo ] 1
|  8>     print[ P_OrbEn ] 0
|  9>     print[ P_Cartesian ] 0
| 10> end
| 11> *xyz 0 1
| 12>  N        3.0306950000    -0.2143280000    -1.3118240000
| 13>  C        2.7888030000    -0.1844330000     0.1205250000
| 14>  C        3.0847080000     1.1667260000     0.6953400000
| 15>  C        3.0807340000     2.3483350000     0.0032810000
| 16>  S        3.4452330000     3.6151750000     1.0644040000
| 17>  N        3.6084560000     2.6746350000     2.3933970000
| 18>  C        3.3969050000     1.4244210000     2.0535230000
| 19>  H        2.7252960000    -1.0944160000    -1.7060470000
| 20>  H        4.0211750000    -0.1242400000    -1.5043420000
| 21>  H        3.3563370000    -0.9368320000     0.6896140000
| 22>  H        1.7300080000    -0.4166600000     0.2826380000
| 23>  H        2.8805680000     2.4872540000    -1.0487810000
| 24>  H        3.4737720000     0.6604620000     2.8213700000
| 25> *
| 26>
| 27>                          ****END OF INPUT****
 Total Charge           Charge          ....    0
 Multiplicity           Mult            ....    1
 Number of Electrons    NEL             ....   60
 Basis Dimension        Dim             ....  132

MULLIKEN ATOMIC CHARGES
-----------------------
   0 N :   -0.214766
   1 C :    0.190564
   2 C :   -0.157052
   3 C :   -0.104437
   4 S :    0.261487
   5 N :   -0.287495
   6 C :    0.073627
   7 H :    0.092769
   8 H :    0.094195
   9 H :   -0.002485
  10 H :    0.024326
  11 H :    0.027821
  12 H :    0.001445
Sum of atomic charges:   -0.0000000

LOEWDIN ATOMIC CHARGES
----------------------
   0 N :   -0.104019
   1 C :    0.016611
   2 C :   -0.109010
   3 C :   -0.204308
   4 S :    0.506886
   5 N :   -0.270021
   6 C :   -0.043296
   7 H :    0.055770
   8 H :    0.054755
   9 H :    0.009764
  10 H :    0.035637
  11 H :    0.028848
  12 H :    0.022383

  Mayer bond orders larger than 0.1
B(  0-N ,  1-C ) :   1.1147 B(  0-N ,  7-H ) :   0.9612 B(  0-N ,  8-H ) :   0.9701
B(  1-C ,  2-C ) :   1.0425 B(  1-C ,  9-H ) :   0.9179 B(  1-C , 10-H ) :   0.9063
B(  2-C ,  3-C ) :   1.5385 B(  2-C ,  4-S ) :   0.1028 B(  2-C ,  6-C ) :   1.2556
B(  3-C ,  4-S ) :   1.1785 B(  3-C ,  5-N ) :   0.1356 B(  3-C , 11-H ) :   0.9521
B(  4-S ,  5-N ) :   1.2124 B(  5-N ,  6-C ) :   1.5973 B(  6-C , 12-H ) :   0.9787

FINAL SINGLE POINT ENERGY      -662.890961706208

DIPOLE MOMENT
-------------
                                X             Y             Z
Electronic contribution:      1.19013       8.77637       3.77811
Nuclear contribution   :     -1.19192      -9.77688      -4.55615
                        -----------------------------------------
Total Dipole Moment    :     -0.00179      -1.00051      -0.77804
                        -----------------------------------------
Magnitude (a.u.)       :      1.26743
Magnitude (Debye)      :      3.22155

                             ****ORCA TERMINATED NORMALLY****
TOTAL RUN TIME: 0 days 0 hours 0 minutes 6 seconds 342 msec
