                         Program Version 3.0.3 - RELEASE   -
|  1> ! RI PBE def2-SVP def2-SVP/J NBO PAL2
|  2> % maxcore 2000
|  3> % output
|  4>     # printlevel mini
|  5>     print[ P_Basis ] 0
|  6>     print[ P_SCFInfo ] 1
|  7>     print[ P_SCFIterInfo ] 1
|  8>     print[ P_OrbEn ] 0
|  9>     print[ P_Cartesian ] 0
| 10> end
| 11> *xyz 0 1
| 12>  N        0.9194320000    -0.1028450000    -0.0440460000
| 13>  C        2.0702340000    -0.0854380000    -0.0407860000
| 14>  C        3.4937400000    -0.0240330000    -0.0368960000
| 15>  C        4.2019550000     1.1469010000    -0.0388010000
| 16>  S        5.8617010000     0.7989180000    -0.0328530000
| 17>  C        5.4963920000    -0.8805860000    -0.0282470000
| 18>  N        4.2369400000    -1.1712680000    -0.0308920000
| 19>  H        3.8195760000     2.1553800000    -0.0432980000
| 20>  H        6.2845390000    -1.6217290000    -0.0234820000
| 21> *
| 22>
| 23>                          ****END OF INPUT****
 Total Charge           Charge          ....    0
 Multiplicity           Mult            ....    1
 Number of Electrons    NEL             ....   56
 Basis Dimension        Dim             ....  112

MULLIKEN ATOMIC CHARGES
-----------------------
   0 N :    0.097666
   1 C :   -0.067910
   2 C :   -0.200012
   3 C :   -0.006540
   4 S :    0.125012
   5 C :    0.006895
   6 N :   -0.052785
   7 H :    0.038765
   8 H :    0.058909
Sum of atomic charges:   -0.0000000

LOEWDIN ATOMIC CHARGES
----------------------
   0 N :   -0.036858
   1 C :   -0.035420
   2 C :   -0.090018
   3 C :   -0.174700
   4 S :    0.469989
   5 C :   -0.141481
   6 N :   -0.062980
   7 H :    0.042533
   8 H :    0.028935

  Mayer bond orders larger than 0.1
B(  0-N ,  1-C ) :   3.0180 B(  1-C ,  2-C ) :   1.1292 B(  2-C ,  3-C ) :   1.5090
B(  2-C ,  6-N ) :   1.4084 B(  3-C ,  4-S ) :   1.1853 B(  3-C ,  7-H ) :   0.9652
B(  4-S ,  5-C ) :   1.1568 B(  4-S ,  6-N ) :   0.1143 B(  5-C ,  6-N ) :   1.6626
B(  5-C ,  8-H ) :   0.9559

FINAL SINGLE POINT ENERGY      -660.495174557692

DIPOLE MOMENT
-------------
                                X             Y             Z
Electronic contribution:      0.10094       0.37236      -0.00101
Nuclear contribution   :      1.68315       0.29859       0.00384
                        -----------------------------------------
Total Dipole Moment    :      1.78409       0.67095       0.00283
                        -----------------------------------------
Magnitude (a.u.)       :      1.90609
Magnitude (Debye)      :      4.84488

                             ****ORCA TERMINATED NORMALLY****
TOTAL RUN TIME: 0 days 0 hours 0 minutes 5 seconds 410 msec
