                         Program Version 3.0.3 - RELEASE   -
|  1> ! RI PBE def2-SVP def2-SVP/J NBO PAL2
|  2> % maxcore 2000
|  3> % output
|  4>     # printlevel mini
|  5>     print[ P_Basis ] 0
|  6>     print[ P_SCFInfo ] 1
|  7>     print[ P_SCFIterInfo ] 1
|  8>     print[ P_OrbEn ] 0
|  9>     print[ P_Cartesian ] 0
| 10> end
| 11> *xyz 0 1
| 12>  N        3.5360740000    -0.2852080000    -0.9077380000
| 13>  C        2.5296650000     0.1897070000     0.0311980000
| 14>  C        2.9231950000    -0.1666840000     1.4271880000
| 15>  C        3.0995170000     0.6944980000     2.4679180000
| 16>  S        3.5330810000    -0.1680480000     3.8740820000
| 17>  C        3.4575510000    -1.6259800000     2.9774920000
| 18>  N        3.1303640000    -1.4843820000     1.7325450000
| 19>  H        3.1994410000    -0.1927250000    -1.8581380000
| 20>  H        3.6967420000    -1.2722960000    -0.7412430000
| 21>  H        1.5260970000    -0.2278880000    -0.1502530000
| 22>  H        2.4455510000     1.2764540000    -0.0506320000
| 23>  H        3.0056040000     1.7692030000     2.4697040000
| 24>  H        3.6686090000    -2.5797400000     3.4430860000
| 25> *
| 26>
| 27>                          ****END OF INPUT****
 Total Charge           Charge          ....    0
 Multiplicity           Mult            ....    1
 Number of Electrons    NEL             ....   60
 Basis Dimension        Dim             ....  132

MULLIKEN ATOMIC CHARGES
-----------------------
   0 N :   -0.219559
   1 C :    0.221588
   2 C :   -0.101915
   3 C :   -0.098317
   4 S :    0.086094
   5 C :   -0.010711
   6 N :   -0.116719
   7 H :    0.085812
   8 H :    0.095955
   9 H :    0.002988
  10 H :   -0.012292
  11 H :    0.023017
  12 H :    0.044060
Sum of atomic charges:   -0.0000000

LOEWDIN ATOMIC CHARGES
----------------------
   0 N :   -0.110489
   1 C :    0.011766
   2 C :   -0.051325
   3 C :   -0.217299
   4 S :    0.432234
   5 C :   -0.155720
   6 N :   -0.097297
   7 H :    0.051572
   8 H :    0.049862
   9 H :    0.012949
  10 H :    0.024018
  11 H :    0.029595
  12 H :    0.020134

  Mayer bond orders larger than 0.1
B(  0-N ,  1-C ) :   1.0980 B(  0-N ,  7-H ) :   0.9615 B(  0-N ,  8-H ) :   0.9612
B(  1-C ,  2-C ) :   1.0552 B(  1-C ,  9-H ) :   0.8935 B(  1-C , 10-H ) :   0.9066
B(  2-C ,  3-C ) :   1.5694 B(  2-C ,  6-N ) :   1.3458 B(  3-C ,  4-S ) :   1.1616
B(  3-C , 11-H ) :   0.9571 B(  4-S ,  5-C ) :   1.1751 B(  4-S ,  6-N ) :   0.1288
B(  5-C ,  6-N ) :   1.6528 B(  5-C , 12-H ) :   0.9587

FINAL SINGLE POINT ENERGY      -662.900274874924

DIPOLE MOMENT
-------------
                                X             Y             Z
Electronic contribution:      1.38837      -0.78115       8.21931
Nuclear contribution   :     -1.72335       0.92409      -8.08946
                        -----------------------------------------
Total Dipole Moment    :     -0.33498       0.14294       0.12985
                        -----------------------------------------
Magnitude (a.u.)       :      0.38666
Magnitude (Debye)      :      0.98281

                             ****ORCA TERMINATED NORMALLY****
TOTAL RUN TIME: 0 days 0 hours 0 minutes 6 seconds 315 msec
