                         Program Version 3.0.3 - RELEASE   -
|  1> ! RI PBE def2-SVP def2-SVP/J NBO PAL2
|  2> % maxcore 2000
|  3> % output
|  4>     # printlevel mini
|  5>     print[ P_Basis ] 0
|  6>     print[ P_SCFInfo ] 1
|  7>     print[ P_SCFIterInfo ] 1
|  8>     print[ P_OrbEn ] 0
|  9>     print[ P_Cartesian ] 0
| 10> end
| 11> *xyz 0 1
| 12>  N        0.9385320000     0.1189250000     0.0701250000
| 13>  C        2.0891000000     0.0733910000     0.0666210000
| 14>  C        3.5044580000    -0.0319030000     0.0625010000
| 15>  N        4.3177470000     0.9875560000     0.0573890000
| 16>  C        5.6027610000     0.5611920000     0.0545130000
| 17>  C        5.7791700000    -0.7932870000     0.0574430000
| 18>  S        4.2730250000    -1.5741500000     0.0643660000
| 19>  H        6.4033490000     1.2884900000     0.0501200000
| 20>  H        6.7030690000    -1.3509240000     0.0560020000
| 21> *
| 22>
| 23>                          ****END OF INPUT****
 Total Charge           Charge          ....    0
 Multiplicity           Mult            ....    1
 Number of Electrons    NEL             ....   56
 Basis Dimension        Dim             ....  112

MULLIKEN ATOMIC CHARGES
-----------------------
   0 N :    0.098218
   1 C :   -0.040381
   2 C :   -0.297558
   3 N :   -0.037095
   4 C :    0.080586
   5 C :   -0.058648
   6 S :    0.188870
   7 H :    0.019654
   8 H :    0.046352
Sum of atomic charges:   -0.0000000

LOEWDIN ATOMIC CHARGES
----------------------
   0 N :   -0.025019
   1 C :   -0.054397
   2 C :   -0.203568
   3 N :   -0.055644
   4 C :   -0.028391
   5 C :   -0.197094
   6 S :    0.491428
   7 H :    0.034536
   8 H :    0.038149

  Mayer bond orders larger than 0.1
B(  0-N ,  1-C ) :   2.9862 B(  1-C ,  2-C ) :   1.1734 B(  2-C ,  3-N ) :   1.6821
B(  2-C ,  5-C ) :   0.1100 B(  2-C ,  6-S ) :   1.1504 B(  3-N ,  4-C ) :   1.3719
B(  3-N ,  6-S ) :   0.1391 B(  4-C ,  5-C ) :   1.4896 B(  4-C ,  7-H ) :   0.9821
B(  5-C ,  6-S ) :   1.1958 B(  5-C ,  8-H ) :   0.9587

FINAL SINGLE POINT ENERGY      -660.494042669246

DIPOLE MOMENT
-------------
                                X             Y             Z
Electronic contribution:     -3.24238      -1.35092       0.01369
Nuclear contribution   :      4.98394       0.62285      -0.01723
                        -----------------------------------------
Total Dipole Moment    :      1.74156      -0.72807      -0.00353
                        -----------------------------------------
Magnitude (a.u.)       :      1.88762
Magnitude (Debye)      :      4.79796

                             ****ORCA TERMINATED NORMALLY****
TOTAL RUN TIME: 0 days 0 hours 0 minutes 5 seconds 560 msec
