                         Program Version 3.0.3 - RELEASE   -
|  1> ! RI PBE def2-SVP def2-SVP/J NBO PAL2
|  2> % maxcore 2000
|  3> % output
|  4>     # printlevel mini
|  5>     print[ P_Basis ] 0
|  6>     print[ P_SCFInfo ] 1
|  7>     print[ P_SCFIterInfo ] 1
|  8>     print[ P_OrbEn ] 0
|  9>     print[ P_Cartesian ] 0
| 10> end
| 11> *xyz 0 1
| 12>  N        3.4218210000    -0.2445530000    -1.0288100000
| 13>  C        2.3474530000    -0.0613070000    -0.0605240000
| 14>  C        2.8297510000    -0.2858650000     1.3358520000
| 15>  N        2.9975870000     0.6526470000     2.2148930000
| 16>  C        3.4616650000     0.1494130000     3.3934840000
| 17>  C        3.6555660000    -1.1955120000     3.4284330000
| 18>  S        3.2284460000    -1.8652600000     1.9192310000
| 19>  H        3.0863960000    -0.0337440000    -1.9606670000
| 20>  H        3.7359510000    -1.2074780000    -1.0376790000
| 21>  H        1.4689580000    -0.6996290000    -0.2421350000
| 22>  H        2.0139000000     0.9770410000    -0.1022160000
| 23>  H        3.6486050000     0.8212490000     4.2209000000
| 24>  H        4.0138910000    -1.8060130000     4.2423470000
| 25> *
| 26>
| 27>                          ****END OF INPUT****
 Total Charge           Charge          ....    0
 Multiplicity           Mult            ....    1
 Number of Electrons    NEL             ....   60
 Basis Dimension        Dim             ....  132

MULLIKEN ATOMIC CHARGES
-----------------------
   0 N :   -0.218679
   1 C :    0.209995
   2 C :   -0.211597
   3 N :   -0.083387
   4 C :    0.066508
   5 C :   -0.094003
   6 S :    0.089761
   7 H :    0.092695
   8 H :    0.087691
   9 H :    0.006590
  10 H :    0.015455
  11 H :    0.005104
  12 H :    0.033867
Sum of atomic charges:   -0.0000000

LOEWDIN ATOMIC CHARGES
----------------------
   0 N :   -0.106279
   1 C :   -0.006296
   2 C :   -0.157662
   3 N :   -0.090912
   4 C :   -0.041728
   5 C :   -0.216226
   6 S :    0.415604
   7 H :    0.054321
   8 H :    0.045630
   9 H :    0.009049
  10 H :    0.038509
  11 H :    0.026405
  12 H :    0.029584

  Mayer bond orders larger than 0.1
B(  0-N ,  1-C ) :   1.0811 B(  0-N ,  7-H ) :   0.9648 B(  0-N ,  8-H ) :   0.9661
B(  1-C ,  2-C ) :   1.0337 B(  1-C ,  9-H ) :   0.9077 B(  1-C , 10-H ) :   0.9039
B(  2-C ,  3-N ) :   1.7322 B(  2-C ,  6-S ) :   1.1326 B(  3-N ,  4-C ) :   1.3441
B(  3-N ,  6-S ) :   0.1225 B(  4-C ,  5-C ) :   1.5470 B(  4-C , 11-H ) :   0.9852
B(  5-C ,  6-S ) :   1.1751 B(  5-C , 12-H ) :   0.9616

FINAL SINGLE POINT ENERGY      -662.898279351779

DIPOLE MOMENT
-------------
                                X             Y             Z
Electronic contribution:      0.62751      -2.54801       3.90557
Nuclear contribution   :     -0.85552       1.80533      -4.11943
                        -----------------------------------------
Total Dipole Moment    :     -0.22801      -0.74269      -0.21387
                        -----------------------------------------
Magnitude (a.u.)       :      0.80580
Magnitude (Debye)      :      2.04817

                             ****ORCA TERMINATED NORMALLY****
TOTAL RUN TIME: 0 days 0 hours 0 minutes 6 seconds 282 msec
