                         Program Version 3.0.3 - RELEASE   -
|  1> ! RI PBE def2-SVP def2-SVP/J NBO PAL2
|  2> % maxcore 2000
|  3> % output
|  4>     # printlevel mini
|  5>     print[ P_Basis ] 0
|  6>     print[ P_SCFInfo ] 1
|  7>     print[ P_SCFIterInfo ] 1
|  8>     print[ P_OrbEn ] 0
|  9>     print[ P_Cartesian ] 0
| 10> end
| 11> *xyz 0 1
| 12>  N        2.4690450000    -1.4791600000     0.0420840000
| 13>  C        2.4852530000    -0.1385630000    -0.1370670000
| 14>  S        1.9326810000     0.9273370000     1.0183330000
| 15>  N        2.9756450000     0.2793830000    -1.3069900000
| 16>  C        3.1418600000     1.6202520000    -1.8301650000
| 17>  C        3.7310140000     0.9920570000    -3.1160120000
| 18>  C        3.5167300000    -0.3962390000    -2.4768370000
| 19>  H        2.1063890000    -1.8249230000     0.9104580000
| 20>  H        2.8005390000    -2.1255840000    -0.6512630000
| 21>  H        3.8241130000     2.2340170000    -1.2372450000
| 22>  H        2.1985070000     2.1592430000    -1.9454660000
| 23>  H        4.7721870000     1.2429310000    -3.3083400000
| 24>  H        3.1461210000     1.1677650000    -4.0165660000
| 25>  H        4.4309650000    -0.9667790000    -2.2779630000
| 26>  H        2.7960500000    -1.0425270000    -2.9904710000
| 27> *
| 28>
| 29>                          ****END OF INPUT****
 Total Charge           Charge          ....    0
 Multiplicity           Mult            ....    1
 Number of Electrons    NEL             ....   62
 Basis Dimension        Dim             ....  142

MULLIKEN ATOMIC CHARGES
-----------------------
   0 N :   -0.048317
   1 C :   -0.007132
   2 S :   -0.309620
   3 N :   -0.274512
   4 C :    0.188796
   5 C :   -0.089555
   6 C :    0.130684
   7 H :    0.121042
   8 H :    0.102578
   9 H :    0.032969
  10 H :    0.032607
  11 H :    0.030741
  12 H :    0.030279
  13 H :    0.028499
  14 H :    0.030941
Sum of atomic charges:   -0.0000000

LOEWDIN ATOMIC CHARGES
----------------------
   0 N :    0.007804
   1 C :   -0.127360
   2 S :   -0.178725
   3 N :   -0.036781
   4 C :    0.052967
   5 C :   -0.033096
   6 C :    0.035993
   7 H :    0.073841
   8 H :    0.065098
   9 H :    0.022894
  10 H :    0.022919
  11 H :    0.029719
  12 H :    0.029642
  13 H :    0.017435
  14 H :    0.017650

  Mayer bond orders larger than 0.1
B(  0-N ,  1-C ) :   1.2682 B(  0-N ,  7-H ) :   0.9363 B(  0-N ,  8-H ) :   0.9398
B(  1-C ,  2-S ) :   1.5479 B(  1-C ,  3-N ) :   1.2062 B(  3-N ,  4-C ) :   1.0018
B(  3-N ,  6-C ) :   1.0013 B(  4-C ,  5-C ) :   1.0980 B(  4-C ,  9-H ) :   0.9376
B(  4-C , 10-H ) :   0.9375 B(  5-C ,  6-C ) :   1.1215 B(  5-C , 11-H ) :   0.9298
B(  5-C , 12-H ) :   0.9294 B(  6-C , 13-H ) :   0.9293 B(  6-C , 14-H ) :   0.9302

FINAL SINGLE POINT ENERGY      -664.096052321990

DIPOLE MOMENT
-------------
                                X             Y             Z
Electronic contribution:     -3.12801       0.56896       7.11798
Nuclear contribution   :      3.86896      -1.73743      -8.69622
                        -----------------------------------------
Total Dipole Moment    :      0.74096      -1.16847      -1.57823
                        -----------------------------------------
Magnitude (a.u.)       :      2.09885
Magnitude (Debye)      :      5.33485

                             ****ORCA TERMINATED NORMALLY****
TOTAL RUN TIME: 0 days 0 hours 0 minutes 7 seconds 282 msec
