                         Program Version 3.0.3 - RELEASE   -
|  1> ! RI PBE def2-SVP def2-SVP/J NBO PAL2
|  2> % maxcore 2000
|  3> % output
|  4>     # printlevel mini
|  5>     print[ P_Basis ] 0
|  6>     print[ P_SCFInfo ] 1
|  7>     print[ P_SCFIterInfo ] 1
|  8>     print[ P_OrbEn ] 0
|  9>     print[ P_Cartesian ] 0
| 10> end
| 11> *xyz 0 1
| 12>  N        2.7501900000    -1.3531380000     0.7379650000
| 13>  C        2.4448840000    -0.2514990000     0.0241690000
| 14>  S        0.9598630000    -0.0315780000    -0.6913120000
| 15>  N        3.4249940000     0.6792910000    -0.0681590000
| 16>  C        4.6430740000     0.6581810000     0.6640230000
| 17>  C        5.7606110000    -0.2429020000     0.2046060000
| 18>  C        5.8526940000     1.2370900000     0.0104050000
| 19>  H        2.0776560000    -2.0977050000     0.7281880000
| 20>  H        3.6955550000    -1.5411480000     1.0258190000
| 21>  H        3.1308360000     1.5370100000    -0.5055540000
| 22>  H        4.5486470000     0.8075920000     1.7379790000
| 23>  H        5.5732500000    -0.8459940000    -0.6749140000
| 24>  H        6.3863740000    -0.7037800000     0.9590390000
| 25>  H        5.7332130000     1.6127330000    -0.9981440000
| 26>  H        6.5377400000     1.8011480000     0.6294810000
| 27> *
| 28>
| 29>                          ****END OF INPUT****
 Total Charge           Charge          ....    0
 Multiplicity           Mult            ....    1
 Number of Electrons    NEL             ....   62
 Basis Dimension        Dim             ....  142

MULLIKEN ATOMIC CHARGES
-----------------------
   0 N :   -0.025875
   1 C :   -0.062586
   2 S :   -0.295484
   3 N :   -0.046505
   4 C :   -0.102316
   5 C :   -0.040852
   6 C :   -0.025593
   7 H :    0.120908
   8 H :    0.106284
   9 H :    0.123365
  10 H :    0.047055
  11 H :    0.056453
  12 H :    0.049155
  13 H :    0.047667
  14 H :    0.048324
Sum of atomic charges:    0.0000000

LOEWDIN ATOMIC CHARGES
----------------------
   0 N :    0.017190
   1 C :   -0.120826
   2 S :   -0.178546
   3 N :    0.006299
   4 C :   -0.008905
   5 C :   -0.054310
   6 C :   -0.035527
   7 H :    0.075095
   8 H :    0.066320
   9 H :    0.075985
  10 H :    0.022309
  11 H :    0.035165
  12 H :    0.030749
  13 H :    0.034512
  14 H :    0.034491

  Mayer bond orders larger than 0.1
B(  0-N ,  1-C ) :   1.2854 B(  0-N ,  7-H ) :   0.9365 B(  0-N ,  8-H ) :   0.9313
B(  1-C ,  2-S ) :   1.5799 B(  1-C ,  3-N ) :   1.2038 B(  3-N ,  4-C ) :   1.0456
B(  3-N ,  9-H ) :   0.9154 B(  4-C ,  5-C ) :   0.9756 B(  4-C ,  6-C ) :   0.9983
B(  4-C , 10-H ) :   0.9381 B(  5-C ,  6-C ) :   1.0354 B(  5-C , 11-H ) :   0.9437
B(  5-C , 12-H ) :   0.9483 B(  6-C , 13-H ) :   0.9522 B(  6-C , 14-H ) :   0.9438

FINAL SINGLE POINT ENERGY      -664.097016780949

DIPOLE MOMENT
-------------
                                X             Y             Z
Electronic contribution:     -8.94418      -0.31002      -1.89675
Nuclear contribution   :     10.87834       0.08397       2.68226
                        -----------------------------------------
Total Dipole Moment    :      1.93416      -0.22604       0.78551
                        -----------------------------------------
Magnitude (a.u.)       :      2.09978
Magnitude (Debye)      :      5.33723

                             ****ORCA TERMINATED NORMALLY****
TOTAL RUN TIME: 0 days 0 hours 0 minutes 7 seconds 238 msec
