                         Program Version 3.0.3 - RELEASE   -
|  1> ! RI PBE def2-SVP def2-SVP/J NBO PAL2
|  2> % maxcore 2000
|  3> % output
|  4>     # printlevel mini
|  5>     print[ P_Basis ] 0
|  6>     print[ P_SCFInfo ] 1
|  7>     print[ P_SCFIterInfo ] 1
|  8>     print[ P_OrbEn ] 0
|  9>     print[ P_Cartesian ] 0
| 10> end
| 11> *xyz 0 1
| 12>  N        2.2730580000    -0.8094250000     0.5336840000
| 13>  C        2.0105110000     0.4181840000     1.0424080000
| 14>  S        0.4557540000     0.9362980000     1.3310760000
| 15>  N        3.0793510000     1.1861470000     1.3308140000
| 16>  C        4.4701780000     0.8352480000     1.1502920000
| 17>  C        5.3428610000     1.6946190000     2.0051380000
| 18>  C        6.2925050000     2.4874720000     1.5329420000
| 19>  H        1.4683680000    -1.3306490000     0.2342180000
| 20>  H        3.1535810000    -1.0183570000     0.0950020000
| 21>  H        2.8523460000     2.1108940000     1.6561380000
| 22>  H        4.7792550000     0.9263810000     0.0996980000
| 23>  H        4.6061150000    -0.2115740000     1.4495970000
| 24>  H        5.1565250000     1.6406690000     3.0753100000
| 25>  H        6.4906040000     2.5629780000     0.4682330000
| 26>  H        6.9097980000     3.0857040000     2.1924600000
| 27> *
| 28>
| 29>                          ****END OF INPUT****
 Total Charge           Charge          ....    0
 Multiplicity           Mult            ....    1
 Number of Electrons    NEL             ....   62
 Basis Dimension        Dim             ....  142

MULLIKEN ATOMIC CHARGES
-----------------------
   0 N :   -0.050250
   1 C :   -0.057632
   2 S :   -0.293121
   3 N :   -0.116452
   4 C :    0.177924
   5 C :   -0.140590
   6 C :   -0.023712
   7 H :    0.123225
   8 H :    0.107103
   9 H :    0.123256
  10 H :    0.018250
  11 H :    0.032707
  12 H :    0.029832
  13 H :    0.029157
  14 H :    0.040302
Sum of atomic charges:   -0.0000000

LOEWDIN ATOMIC CHARGES
----------------------
   0 N :    0.006419
   1 C :   -0.122584
   2 S :   -0.177072
   3 N :   -0.000571
   4 C :    0.018461
   5 C :   -0.042605
   6 C :   -0.042552
   7 H :    0.075286
   8 H :    0.063800
   9 H :    0.076045
  10 H :    0.020672
  11 H :    0.033025
  12 H :    0.033474
  13 H :    0.026438
  14 H :    0.031763

  Mayer bond orders larger than 0.1
B(  0-N ,  1-C ) :   1.2585 B(  0-N ,  7-H ) :   0.9354 B(  0-N ,  8-H ) :   0.9375
B(  1-C ,  2-S ) :   1.5765 B(  1-C ,  3-N ) :   1.2302 B(  3-N ,  4-C ) :   0.9731
B(  3-N ,  9-H ) :   0.9189 B(  4-C ,  5-C ) :   1.0566 B(  4-C , 10-H ) :   0.9236
B(  4-C , 11-H ) :   0.9091 B(  5-C ,  6-C ) :   2.0026 B(  5-C , 12-H ) :   0.9595
B(  6-C , 13-H ) :   0.9493 B(  6-C , 14-H ) :   0.9470

FINAL SINGLE POINT ENERGY      -664.095286418738

DIPOLE MOMENT
-------------
                                X             Y             Z
Electronic contribution:     -9.20428      -0.73313       0.31416
Nuclear contribution   :     11.14637       0.27437      -0.80224
                        -----------------------------------------
Total Dipole Moment    :      1.94209      -0.45875      -0.48808
                        -----------------------------------------
Magnitude (a.u.)       :      2.05435
Magnitude (Debye)      :      5.22175

                             ****ORCA TERMINATED NORMALLY****
TOTAL RUN TIME: 0 days 0 hours 0 minutes 7 seconds 97 msec
