                         Program Version 3.0.3 - RELEASE   -
|  1> ! RI PBE def2-SVP def2-SVP/J NBO PAL2
|  2> % maxcore 2000
|  3> % output
|  4>     # printlevel mini
|  5>     print[ P_Basis ] 0
|  6>     print[ P_SCFInfo ] 1
|  7>     print[ P_SCFIterInfo ] 1
|  8>     print[ P_OrbEn ] 0
|  9>     print[ P_Cartesian ] 0
| 10> end
| 11> *xyz 0 1
| 12>  N        3.9034510000    -1.5538440000    -0.2023910000
| 13>  C        2.8587560000    -0.7005690000    -0.0790110000
| 14>  S        1.2985750000    -1.2357790000     0.1199800000
| 15>  N        3.1624800000     0.6129370000    -0.1007530000
| 16>  C        4.5006750000     1.1614160000    -0.1350030000
| 17>  C        4.4760050000     2.6046760000     0.0199200000
| 18>  C        4.4448560000     3.7958730000     0.1476650000
| 19>  H        3.6598530000    -2.5239350000    -0.2956780000
| 20>  H        4.7897870000    -1.2589710000    -0.5753670000
| 21>  H        2.3866260000     1.2377670000     0.0363830000
| 22>  H        4.9958420000     0.9241440000    -1.0877490000
| 23>  H        5.1121190000     0.7266960000     0.6672980000
| 24>  H        4.4196740000     4.8541790000     0.2626150000
| 25> *
| 26>
| 27>                          ****END OF INPUT****
 Total Charge           Charge          ....    0
 Multiplicity           Mult            ....    1
 Number of Electrons    NEL             ....   60
 Basis Dimension        Dim             ....  132

MULLIKEN ATOMIC CHARGES
-----------------------
   0 N :   -0.044378
   1 C :   -0.057895
   2 S :   -0.284440
   3 N :   -0.116735
   4 C :    0.204802
   5 C :    0.265452
   6 C :   -0.443097
   7 H :    0.124433
   8 H :    0.106465
   9 H :    0.132437
  10 H :    0.045693
  11 H :    0.054088
  12 H :    0.013175
Sum of atomic charges:   -0.0000000

LOEWDIN ATOMIC CHARGES
----------------------
   0 N :    0.007034
   1 C :   -0.123324
   2 S :   -0.168084
   3 N :    0.001938
   4 C :    0.014903
   5 C :   -0.035261
   6 C :   -0.048909
   7 H :    0.077018
   8 H :    0.064133
   9 H :    0.081808
  10 H :    0.041616
  11 H :    0.046117
  12 H :    0.041012

  Mayer bond orders larger than 0.1
B(  0-N ,  1-C ) :   1.2577 B(  0-N ,  7-H ) :   0.9345 B(  0-N ,  8-H ) :   0.9360
B(  1-C ,  2-S ) :   1.5892 B(  1-C ,  3-N ) :   1.2252 B(  3-N ,  4-C ) :   0.9784
B(  3-N ,  9-H ) :   0.9193 B(  4-C ,  5-C ) :   1.0579 B(  4-C , 10-H ) :   0.8913
B(  4-C , 11-H ) :   0.8945 B(  5-C ,  6-C ) :   2.3708 B(  5-C , 12-H ) :  -0.1064
B(  6-C , 12-H ) :   1.0977

FINAL SINGLE POINT ENERGY      -662.847564114079

DIPOLE MOMENT
-------------
                                X             Y             Z
Electronic contribution:     -4.19169      -1.46035       0.47869
Nuclear contribution   :      6.01931       2.09399      -0.84006
                        -----------------------------------------
Total Dipole Moment    :      1.82762       0.63364      -0.36137
                        -----------------------------------------
Magnitude (a.u.)       :      1.96781
Magnitude (Debye)      :      5.00178

                             ****ORCA TERMINATED NORMALLY****
TOTAL RUN TIME: 0 days 0 hours 0 minutes 6 seconds 363 msec
