                         Program Version 3.0.3 - RELEASE   -
|  1> ! RI PBE def2-SVP def2-SVP/J NBO PAL2
|  2> % maxcore 2000
|  3> % output
|  4>     # printlevel mini
|  5>     print[ P_Basis ] 0
|  6>     print[ P_SCFInfo ] 1
|  7>     print[ P_SCFIterInfo ] 1
|  8>     print[ P_OrbEn ] 0
|  9>     print[ P_Cartesian ] 0
| 10> end
| 11> *xyz 0 1
| 12>  N        2.6056550000     1.0957510000    -0.9584160000
| 13>  S        2.8508510000    -0.1308500000     0.1158710000
| 14>  O        3.8689900000     0.3203390000     1.0164060000
| 15>  O        1.5766520000    -0.5852020000     0.5944170000
| 16>  C        3.5233350000    -1.4020840000    -0.8826910000
| 17>  C        3.3221680000    -2.8158930000    -0.4321580000
| 18>  C        2.6039980000    -2.3086940000    -1.6384580000
| 19>  H        3.0549410000     1.9439860000    -0.6414280000
| 20>  H        1.6264650000     1.2250790000    -1.1727160000
| 21>  H        4.4705620000    -1.1132730000    -1.3203900000
| 22>  H        2.7336770000    -2.9688100000     0.4632540000
| 23>  H        4.1601240000    -3.4887320000    -0.5600110000
| 24>  H        1.5412270000    -2.1312080000    -1.5354890000
| 25>  H        2.9327380000    -2.6252990000    -2.6200020000
| 26> *
| 27>
| 28>                          ****END OF INPUT****
 Total Charge           Charge          ....    0
 Multiplicity           Mult            ....    1
 Number of Electrons    NEL             ....   64
 Basis Dimension        Dim             ....  137

MULLIKEN ATOMIC CHARGES
-----------------------
   0 N :   -0.216396
   1 S :    0.676813
   2 O :   -0.404656
   3 O :   -0.409320
   4 C :   -0.170527
   5 C :   -0.009525
   6 C :   -0.012547
   7 H :    0.134900
   8 H :    0.131040
   9 H :    0.056473
  10 H :    0.061748
  11 H :    0.054818
  12 H :    0.061430
  13 H :    0.045751
Sum of atomic charges:   -0.0000000

LOEWDIN ATOMIC CHARGES
----------------------
   0 N :   -0.212322
   1 S :    1.108346
   2 O :   -0.470188
   3 O :   -0.472545
   4 C :   -0.181071
   5 C :   -0.034364
   6 C :   -0.041413
   7 H :    0.065465
   8 H :    0.063839
   9 H :    0.034318
  10 H :    0.036015
  11 H :    0.036056
  12 H :    0.033854
  13 H :    0.034013

  Mayer bond orders larger than 0.1
B(  0-N ,  1-S ) :   1.0076 B(  0-N ,  7-H ) :   0.9397 B(  0-N ,  8-H ) :   0.9433
B(  1-S ,  2-O ) :   1.7646 B(  1-S ,  3-O ) :   1.7455 B(  1-S ,  4-C ) :   0.8863
B(  4-C ,  5-C ) :   0.9670 B(  4-C ,  6-C ) :   0.9488 B(  4-C ,  9-H ) :   0.9260
B(  5-C ,  6-C ) :   1.0373 B(  5-C , 10-H ) :   0.9394 B(  5-C , 11-H ) :   0.9482
B(  6-C , 12-H ) :   0.9419 B(  6-C , 13-H ) :   0.9421

FINAL SINGLE POINT ENERGY      -720.916300365387

DIPOLE MOMENT
-------------
                                X             Y             Z
Electronic contribution:     -0.30614       4.30089       4.22079
Nuclear contribution   :      0.31705      -4.20725      -5.45780
                        -----------------------------------------
Total Dipole Moment    :      0.01091       0.09364      -1.23700
                        -----------------------------------------
Magnitude (a.u.)       :      1.24059
Magnitude (Debye)      :      3.15332

                             ****ORCA TERMINATED NORMALLY****
TOTAL RUN TIME: 0 days 0 hours 0 minutes 6 seconds 895 msec
