                         Program Version 3.0.3 - RELEASE   -
|  1> ! RI PBE def2-SVP def2-SVP/J NBO PAL2
|  2> % maxcore 2000
|  3> % output
|  4>     # printlevel mini
|  5>     print[ P_Basis ] 0
|  6>     print[ P_SCFInfo ] 1
|  7>     print[ P_SCFIterInfo ] 1
|  8>     print[ P_OrbEn ] 0
|  9>     print[ P_Cartesian ] 0
| 10> end
| 11> *xyz 0 1
| 12>  N        1.1395920000    -0.1090100000     0.2742700000
| 13>  S        2.7788150000     0.0183550000     0.4123930000
| 14>  O        3.1859410000     1.2182380000    -0.2579050000
| 15>  O        3.1149360000    -0.2286830000     1.7818020000
| 16>  C        3.3475030000    -1.3641220000    -0.5679760000
| 17>  C        4.8332140000    -1.3687140000    -0.6739150000
| 18>  C        5.6013980000    -2.3231030000    -0.1709330000
| 19>  H        0.7466590000     0.6761620000    -0.2268610000
| 20>  H        0.7066970000    -0.2572930000     1.1756530000
| 21>  H        2.8683500000    -1.2399900000    -1.5428370000
| 22>  H        2.9620680000    -2.2656550000    -0.0894830000
| 23>  H        5.2759470000    -0.5249060000    -1.1945690000
| 24>  H        5.1824770000    -3.1695390000     0.3634840000
| 25>  H        6.6792220000    -2.2897300000    -0.2751110000
| 26> *
| 27>
| 28>                          ****END OF INPUT****
 Total Charge           Charge          ....    0
 Multiplicity           Mult            ....    1
 Number of Electrons    NEL             ....   64
 Basis Dimension        Dim             ....  137

MULLIKEN ATOMIC CHARGES
-----------------------
   0 N :   -0.220218
   1 S :    0.622038
   2 O :   -0.410680
   3 O :   -0.403725
   4 C :    0.031930
   5 C :   -0.069493
   6 C :   -0.012480
   7 H :    0.135813
   8 H :    0.136393
   9 H :    0.053361
  10 H :    0.041208
  11 H :    0.028848
  12 H :    0.026845
  13 H :    0.040161
Sum of atomic charges:   -0.0000000

LOEWDIN ATOMIC CHARGES
----------------------
   0 N :   -0.216860
   1 S :    1.103694
   2 O :   -0.474715
   3 O :   -0.468349
   4 C :   -0.154363
   5 C :   -0.051105
   6 C :   -0.037481
   7 H :    0.065401
   8 H :    0.065834
   9 H :    0.040402
  10 H :    0.036140
  11 H :    0.033540
  12 H :    0.026279
  13 H :    0.031581

  Mayer bond orders larger than 0.1
B(  0-N ,  1-S ) :   1.0039 B(  0-N ,  7-H ) :   0.9413 B(  0-N ,  8-H ) :   0.9426
B(  1-S ,  2-O ) :   1.7527 B(  1-S ,  3-O ) :   1.7674 B(  1-S ,  4-C ) :   0.8456
B(  4-C ,  5-C ) :   1.0433 B(  4-C ,  9-H ) :   0.9020 B(  4-C , 10-H ) :   0.9161
B(  5-C ,  6-C ) :   2.0045 B(  5-C , 11-H ) :   0.9539 B(  6-C , 12-H ) :   0.9484
B(  6-C , 13-H ) :   0.9469

FINAL SINGLE POINT ENERGY      -720.916965910606

DIPOLE MOMENT
-------------
                                X             Y             Z
Electronic contribution:     -2.28601       4.83758       2.38143
Nuclear contribution   :      1.44443      -5.51380      -2.89698
                        -----------------------------------------
Total Dipole Moment    :     -0.84158      -0.67622      -0.51555
                        -----------------------------------------
Magnitude (a.u.)       :      1.19638
Magnitude (Debye)      :      3.04096

                             ****ORCA TERMINATED NORMALLY****
TOTAL RUN TIME: 0 days 0 hours 0 minutes 6 seconds 957 msec
