                         Program Version 3.0.3 - RELEASE   -
|  1> ! RI PBE def2-SVP def2-SVP/J NBO PAL2
|  2> % maxcore 2000
|  3> % output
|  4>     # printlevel mini
|  5>     print[ P_Basis ] 0
|  6>     print[ P_SCFInfo ] 1
|  7>     print[ P_SCFIterInfo ] 1
|  8>     print[ P_OrbEn ] 0
|  9>     print[ P_Cartesian ] 0
| 10> end
| 11> *xyz 0 1
| 12>  N        1.1469540000     0.0353110000     0.2110010000
| 13>  S        2.7704860000     0.1389380000    -0.0485280000
| 14>  O        3.0894800000    -0.6822930000    -1.1737700000
| 15>  O        3.1398660000     1.5178210000     0.0193240000
| 16>  C        3.3961320000    -0.6764220000     1.4286730000
| 17>  C        4.8388950000    -0.7186790000     1.4462320000
| 18>  C        6.0366550000    -0.7515630000     1.4580440000
| 19>  H        0.6921640000    -0.5338940000    -0.4897940000
| 20>  H        0.7261180000     0.9485940000     0.3146830000
| 21>  H        2.9604180000    -1.6783650000     1.4304530000
| 22>  H        2.9958490000    -0.1166960000     2.2773390000
| 23>  H        7.1007840000    -0.7784500000     1.4622420000
| 24> *
| 25>
| 26>                          ****END OF INPUT****
 Total Charge           Charge          ....    0
 Multiplicity           Mult            ....    1
 Number of Electrons    NEL             ....   62
 Basis Dimension        Dim             ....  127

MULLIKEN ATOMIC CHARGES
-----------------------
   0 N :   -0.218619
   1 S :    0.627284
   2 O :   -0.395157
   3 O :   -0.395382
   4 C :    0.047200
   5 C :    0.347481
   6 C :   -0.436312
   7 H :    0.140142
   8 H :    0.139443
   9 H :    0.067091
  10 H :    0.067275
  11 H :    0.009553
Sum of atomic charges:   -0.0000000

LOEWDIN ATOMIC CHARGES
----------------------
   0 N :   -0.213820
   1 S :    1.104793
   2 O :   -0.459974
   3 O :   -0.459947
   4 C :   -0.161924
   5 C :   -0.049221
   6 C :   -0.042649
   7 H :    0.067814
   8 H :    0.067712
   9 H :    0.053926
  10 H :    0.053845
  11 H :    0.039445

  Mayer bond orders larger than 0.1
B(  0-N ,  1-S ) :   1.0138 B(  0-N ,  7-H ) :   0.9411 B(  0-N ,  8-H ) :   0.9411
B(  1-S ,  2-O ) :   1.7732 B(  1-S ,  3-O ) :   1.7716 B(  1-S ,  4-C ) :   0.8286
B(  4-C ,  5-C ) :   1.0480 B(  4-C ,  9-H ) :   0.8881 B(  4-C , 10-H ) :   0.8897
B(  5-C ,  6-C ) :   2.3681 B(  5-C , 11-H ) :  -0.1049 B(  6-C , 11-H ) :   1.0968

FINAL SINGLE POINT ENERGY      -719.668528009331

DIPOLE MOMENT
-------------
                                X             Y             Z
Electronic contribution:      0.81781       1.27363      -2.38520
Nuclear contribution   :     -1.79913      -1.63664       3.09431
                        -----------------------------------------
Total Dipole Moment    :     -0.98132      -0.36301       0.70911
                        -----------------------------------------
Magnitude (a.u.)       :      1.26397
Magnitude (Debye)      :      3.21274

                             ****ORCA TERMINATED NORMALLY****
TOTAL RUN TIME: 0 days 0 hours 0 minutes 6 seconds 24 msec
