                         Program Version 3.0.3 - RELEASE   -
|  1> ! RI PBE def2-SVP def2-SVP/J NBO PAL2
|  2> % maxcore 2000
|  3> % output
|  4>     # printlevel mini
|  5>     print[ P_Basis ] 0
|  6>     print[ P_SCFInfo ] 1
|  7>     print[ P_SCFIterInfo ] 1
|  8>     print[ P_OrbEn ] 0
|  9>     print[ P_Cartesian ] 0
| 10> end
| 11> *xyz 0 1
| 12>  O        0.8923270000     0.4879270000     0.0338840000
| 13>  C        2.2423390000     0.2492250000    -0.0687980000
| 14>  C        3.0965060000     1.1409210000     0.8396600000
| 15>  C        4.0996220000     0.0764640000     1.3248620000
| 16>  S        2.9660300000    -1.2193740000     0.7893010000
| 17>  O        2.1249380000    -1.6489880000     1.8709820000
| 18>  O        3.5616930000    -2.1786200000    -0.0990220000
| 19>  H        0.4136980000    -0.0547790000    -0.5992800000
| 20>  H        2.6074070000     0.2144860000    -1.1026870000
| 21>  H        2.4713320000     1.4957060000     1.6591700000
| 22>  H        3.5471740000     1.9922010000     0.3319530000
| 23>  H        4.3125170000     0.0556800000     2.3912550000
| 24>  H        5.0185350000     0.0256610000     0.7420990000
| 25> *
| 26>
| 27>                          ****END OF INPUT****
 Total Charge           Charge          ....    0
 Multiplicity           Mult            ....    1
 Number of Electrons    NEL             ....   64
 Basis Dimension        Dim             ....  132

MULLIKEN ATOMIC CHARGES
-----------------------
   0 O :   -0.187154
   1 C :    0.071430
   2 C :   -0.060191
   3 C :    0.017197
   4 S :    0.524924
   5 O :   -0.398410
   6 O :   -0.401787
   7 H :    0.176368
   8 H :    0.029791
   9 H :    0.055696
  10 H :    0.048144
  11 H :    0.068095
  12 H :    0.055897
Sum of atomic charges:   -0.0000000

LOEWDIN ATOMIC CHARGES
----------------------
   0 O :   -0.069940
   1 C :   -0.078946
   2 C :   -0.059627
   3 C :   -0.155612
   4 S :    1.042834
   5 O :   -0.463247
   6 O :   -0.467418
   7 H :    0.087952
   8 H :    0.010501
   9 H :    0.044044
  10 H :    0.037037
  11 H :    0.037517
  12 H :    0.034904

  Mayer bond orders larger than 0.1
B(  0-O ,  1-C ) :   1.2025 B(  0-O ,  7-H ) :   0.9694 B(  1-C ,  2-C ) :   1.0638
B(  1-C ,  4-S ) :   0.7143 B(  1-C ,  8-H ) :   0.9020 B(  2-C ,  3-C ) :   1.1067
B(  2-C ,  9-H ) :   0.9084 B(  2-C , 10-H ) :   0.9287 B(  3-C ,  4-S ) :   0.8140
B(  3-C , 11-H ) :   0.9271 B(  3-C , 12-H ) :   0.9182 B(  4-S ,  5-O ) :   1.7202
B(  4-S ,  6-O ) :   1.7304

FINAL SINGLE POINT ENERGY      -740.762223912128

DIPOLE MOMENT
-------------
                                X             Y             Z
Electronic contribution:     -1.68572      -5.44268       0.00408
Nuclear contribution   :      1.89267       6.77247      -0.61258
                        -----------------------------------------
Total Dipole Moment    :      0.20695       1.32979      -0.60851
                        -----------------------------------------
Magnitude (a.u.)       :      1.47697
Magnitude (Debye)      :      3.75416

                             ****ORCA TERMINATED NORMALLY****
TOTAL RUN TIME: 0 days 0 hours 0 minutes 6 seconds 391 msec
