                         Program Version 3.0.3 - RELEASE   -
|  1> ! RI PBE def2-SVP def2-SVP/J NBO PAL2
|  2> % maxcore 2000
|  3> % output
|  4>     # printlevel mini
|  5>     print[ P_Basis ] 0
|  6>     print[ P_SCFInfo ] 1
|  7>     print[ P_SCFIterInfo ] 1
|  8>     print[ P_OrbEn ] 0
|  9>     print[ P_Cartesian ] 0
| 10> end
| 11> *xyz 0 1
| 12>  O        1.0107930000    -0.0993950000     0.3145030000
| 13>  C        2.3968700000    -0.0339480000     0.1338570000
| 14>  C        3.1183420000     1.1200280000     0.8811670000
| 15>  S        4.3465790000    -0.0578720000     1.4510380000
| 16>  O        4.5388720000    -0.0711520000     2.8706960000
| 17>  O        5.4752710000    -0.0643240000     0.5618080000
| 18>  C        3.0898390000    -1.1975620000     0.8657590000
| 19>  H        0.5921260000     0.5830320000    -0.2169430000
| 20>  H        2.6663370000    -0.0303510000    -0.9265630000
| 21>  H        2.5255040000     1.4779970000     1.7236180000
| 22>  H        3.5200800000     1.9403800000     0.2900950000
| 23>  H        2.4823300000    -1.5481090000     1.7008810000
| 24>  H        3.4632480000    -2.0242140000     0.2662870000
| 25> *
| 26>
| 27>                          ****END OF INPUT****
 Total Charge           Charge          ....    0
 Multiplicity           Mult            ....    1
 Number of Electrons    NEL             ....   64
 Basis Dimension        Dim             ....  132

MULLIKEN ATOMIC CHARGES
-----------------------
   0 O :   -0.232795
   1 C :   -0.147918
   2 C :    0.139159
   3 S :    0.475683
   4 O :   -0.392963
   5 O :   -0.408359
   6 C :    0.139238
   7 H :    0.167077
   8 H :    0.035393
   9 H :    0.038238
  10 H :    0.065305
  11 H :    0.051405
  12 H :    0.070538
Sum of atomic charges:   -0.0000000

LOEWDIN ATOMIC CHARGES
----------------------
   0 O :   -0.097931
   1 C :    0.025784
   2 C :   -0.173355
   3 S :    1.081059
   4 O :   -0.458491
   5 O :   -0.472149
   6 C :   -0.153953
   7 H :    0.078979
   8 H :    0.019617
   9 H :    0.037606
  10 H :    0.033068
  11 H :    0.042837
  12 H :    0.036928

  Mayer bond orders larger than 0.1
B(  0-O ,  1-C ) :   1.1398 B(  0-O ,  7-H ) :   0.9771 B(  1-C ,  2-C ) :   1.0197
B(  1-C ,  6-C ) :   1.0315 B(  1-C ,  8-H ) :   0.9142 B(  2-C ,  3-S ) :   0.8013
B(  2-C ,  9-H ) :   0.8817 B(  2-C , 10-H ) :   0.9304 B(  3-S ,  4-O ) :   1.7476
B(  3-S ,  5-O ) :   1.7065 B(  3-S ,  6-C ) :   0.7999 B(  6-C , 11-H ) :   0.8883
B(  6-C , 12-H ) :   0.9298

FINAL SINGLE POINT ENERGY      -740.757231801859

DIPOLE MOMENT
-------------
                                X             Y             Z
Electronic contribution:      4.28249      -0.26376       2.40058
Nuclear contribution   :     -5.73433       0.67499      -3.42112
                        -----------------------------------------
Total Dipole Moment    :     -1.45184       0.41123      -1.02053
                        -----------------------------------------
Magnitude (a.u.)       :      1.82166
Magnitude (Debye)      :      4.63029

                             ****ORCA TERMINATED NORMALLY****
TOTAL RUN TIME: 0 days 0 hours 0 minutes 6 seconds 807 msec
