                         Program Version 3.0.3 - RELEASE   -
|  1> ! RI PBE def2-SVP def2-SVP/J NBO PAL2
|  2> % maxcore 2000
|  3> % output
|  4>     # printlevel mini
|  5>     print[ P_Basis ] 0
|  6>     print[ P_SCFInfo ] 1
|  7>     print[ P_SCFIterInfo ] 1
|  8>     print[ P_OrbEn ] 0
|  9>     print[ P_Cartesian ] 0
| 10> end
| 11> *xyz 0 1
| 12>  O        1.4341820000    -0.2428500000     0.9447040000
| 13>  C        2.2212220000     0.0783840000     0.0881450000
| 14>  C        2.8614290000    -0.8340990000    -0.8430460000
| 15>  C        3.7608280000    -0.5070790000    -1.8299600000
| 16>  C        4.1954490000    -1.6275220000    -2.5621540000
| 17>  C        3.6156290000    -2.7845350000    -2.1148590000
| 18>  S        2.5514990000    -2.5216310000    -0.8174340000
| 19>  H        2.5203070000     1.1386760000    -0.0500980000
| 20>  H        4.0882490000     0.5094800000    -2.0100230000
| 21>  H        4.9015620000    -1.5889810000    -3.3805400000
| 22>  H        3.7685340000    -3.7846320000    -2.4934460000
| 23> *
| 24>
| 25>                          ****END OF INPUT****
 Total Charge           Charge          ....    0
 Multiplicity           Mult            ....    1
 Number of Electrons    NEL             ....   58
 Basis Dimension        Dim             ....  122

MULLIKEN ATOMIC CHARGES
-----------------------
   0 O :   -0.166614
   1 C :    0.155713
   2 C :   -0.191848
   3 C :    0.050799
   4 C :    0.032248
   5 C :   -0.073670
   6 S :    0.176724
   7 H :   -0.028068
   8 H :   -0.002342
   9 H :    0.004172
  10 H :    0.042886
Sum of atomic charges:   -0.0000000

LOEWDIN ATOMIC CHARGES
----------------------
   0 O :   -0.124831
   1 C :    0.055784
   2 C :   -0.246103
   3 C :   -0.034474
   4 C :   -0.067556
   5 C :   -0.175879
   6 S :    0.497842
   7 H :   -0.006207
   8 H :    0.035650
   9 H :    0.035172
  10 H :    0.030601

  Mayer bond orders larger than 0.1
B(  0-O ,  1-C ) :   2.1449 B(  1-C ,  2-C ) :   1.0435 B(  1-C ,  7-H ) :   0.9313
B(  2-C ,  3-C ) :   1.4297 B(  2-C ,  6-S ) :   1.1292 B(  3-C ,  4-C ) :   1.2994
B(  3-C ,  8-H ) :   0.9885 B(  4-C ,  5-C ) :   1.4867 B(  4-C ,  9-H ) :   0.9931
B(  5-C ,  6-S ) :   1.2216 B(  5-C , 10-H ) :   0.9666

FINAL SINGLE POINT ENERGY      -665.525850986575

DIPOLE MOMENT
-------------
                                X             Y             Z
Electronic contribution:     -2.73692      -1.98077       2.80638
Nuclear contribution   :      3.60759       1.79625      -3.86188
                        -----------------------------------------
Total Dipole Moment    :      0.87067      -0.18453      -1.05550
                        -----------------------------------------
Magnitude (a.u.)       :      1.38065
Magnitude (Debye)      :      3.50933

                             ****ORCA TERMINATED NORMALLY****
TOTAL RUN TIME: 0 days 0 hours 0 minutes 6 seconds 431 msec
