                         Program Version 3.0.3 - RELEASE   -
|  1> ! RI PBE def2-SVP def2-SVP/J NBO PAL2
|  2> % maxcore 2000
|  3> % output
|  4>     # printlevel mini
|  5>     print[ P_Basis ] 0
|  6>     print[ P_SCFInfo ] 1
|  7>     print[ P_SCFIterInfo ] 1
|  8>     print[ P_OrbEn ] 0
|  9>     print[ P_Cartesian ] 0
| 10> end
| 11> *xyz 0 1
| 12>  O        1.3368530000     0.2733860000     0.6507870000
| 13>  C        2.4413380000    -0.2669070000    -0.0373600000
| 14>  C        2.8886700000     0.7206640000    -1.0634510000
| 15>  C        2.3585000000     1.9465750000    -1.3330770000
| 16>  C        3.0374960000     2.6222950000    -2.3801130000
| 17>  C        4.0713140000     1.8982090000    -2.8874790000
| 18>  S        4.2220530000     0.3918340000    -2.0929640000
| 19>  H        1.0509180000    -0.3645540000     1.3078040000
| 20>  H        2.1741830000    -1.2139800000    -0.5283610000
| 21>  H        3.2691860000    -0.4814630000     0.6540490000
| 22>  H        1.5096450000     2.3400380000    -0.7917910000
| 23>  H        2.7671820000     3.6063350000    -2.7401580000
| 24>  H        4.7530710000     2.1616680000    -3.6814840000
| 25> *
| 26>
| 27>                          ****END OF INPUT****
 Total Charge           Charge          ....    0
 Multiplicity           Mult            ....    1
 Number of Electrons    NEL             ....   60
 Basis Dimension        Dim             ....  132

MULLIKEN ATOMIC CHARGES
-----------------------
   0 O :   -0.267197
   1 C :    0.264250
   2 C :   -0.267299
   3 C :    0.046583
   4 C :    0.033735
   5 C :   -0.090801
   6 S :    0.089351
   7 H :    0.158689
   8 H :    0.012225
   9 H :    0.013226
  10 H :   -0.010717
  11 H :   -0.011053
  12 H :    0.029009
Sum of atomic charges:   -0.0000000

LOEWDIN ATOMIC CHARGES
----------------------
   0 O :   -0.116531
   1 C :    0.054166
   2 C :   -0.211644
   3 C :   -0.068801
   4 C :   -0.070053
   5 C :   -0.206882
   6 S :    0.427792
   7 H :    0.075266
   8 H :    0.014856
   9 H :    0.015238
  10 H :    0.032292
  11 H :    0.030007
  12 H :    0.024295

  Mayer bond orders larger than 0.1
B(  0-O ,  1-C ) :   1.1286 B(  0-O ,  7-H ) :   0.9748 B(  1-C ,  2-C ) :   1.0256
B(  1-C ,  8-H ) :   0.9192 B(  1-C ,  9-H ) :   0.9185 B(  2-C ,  3-C ) :   1.5653
B(  2-C ,  5-C ) :   0.1012 B(  2-C ,  6-S ) :   1.1595 B(  3-C ,  4-C ) :   1.2393
B(  3-C , 10-H ) :   0.9943 B(  4-C ,  5-C ) :   1.5455 B(  4-C , 11-H ) :   0.9881
B(  5-C ,  6-S ) :   1.1590 B(  5-C , 12-H ) :   0.9702

FINAL SINGLE POINT ENERGY      -666.708592784871

DIPOLE MOMENT
-------------
                                X             Y             Z
Electronic contribution:      2.71230      -0.93060      -1.93256
Nuclear contribution   :     -2.75850       0.44557       2.27191
                        -----------------------------------------
Total Dipole Moment    :     -0.04620      -0.48504       0.33935
                        -----------------------------------------
Magnitude (a.u.)       :      0.59376
Magnitude (Debye)      :      1.50922

                             ****ORCA TERMINATED NORMALLY****
TOTAL RUN TIME: 0 days 0 hours 0 minutes 6 seconds 268 msec
