                         Program Version 3.0.3 - RELEASE   -
|  1> ! RI PBE def2-SVP def2-SVP/J NBO PAL2
|  2> % maxcore 2000
|  3> % output
|  4>     # printlevel mini
|  5>     print[ P_Basis ] 0
|  6>     print[ P_SCFInfo ] 1
|  7>     print[ P_SCFIterInfo ] 1
|  8>     print[ P_OrbEn ] 0
|  9>     print[ P_Cartesian ] 0
| 10> end
| 11> *xyz 0 1
| 12>  O        1.2418180000    -0.1538210000     0.7579680000
| 13>  C        2.0868130000     0.0968650000    -0.0620320000
| 14>  C        2.7558910000    -0.9068400000    -0.8890470000
| 15>  C        3.7249270000    -0.6949930000    -1.8404100000
| 16>  C        4.1153650000    -1.9183390000    -2.4173650000
| 17>  N        3.5077790000    -2.9926800000    -1.9601460000
| 18>  S        2.4317920000    -2.5785460000    -0.8077110000
| 19>  H        2.4216720000     1.1378510000    -0.2474290000
| 20>  H        4.1245660000     0.2758670000    -2.1020450000
| 21>  H        4.8636780000    -2.0328640000    -3.1931830000
| 22> *
| 23>
| 24>                          ****END OF INPUT****
 Total Charge           Charge          ....    0
 Multiplicity           Mult            ....    1
 Number of Electrons    NEL             ....   58
 Basis Dimension        Dim             ....  117

MULLIKEN ATOMIC CHARGES
-----------------------
   0 O :   -0.152554
   1 C :    0.171792
   2 C :   -0.192128
   3 C :   -0.008530
   4 C :    0.093357
   5 N :   -0.273988
   6 S :    0.345056
   7 H :   -0.017463
   8 H :    0.006643
   9 H :    0.027814
Sum of atomic charges:   -0.0000000

LOEWDIN ATOMIC CHARGES
----------------------
   0 O :   -0.105701
   1 C :    0.066659
   2 C :   -0.248072
   3 C :   -0.060295
   4 C :   -0.031574
   5 N :   -0.246402
   6 S :    0.558412
   7 H :   -0.003198
   8 H :    0.039587
   9 H :    0.030584

  Mayer bond orders larger than 0.1
B(  0-O ,  1-C ) :   2.1586 B(  1-C ,  2-C ) :   1.0036 B(  1-C ,  7-H ) :   0.9338
B(  2-C ,  3-C ) :   1.4417 B(  2-C ,  5-N ) :   0.1437 B(  2-C ,  6-S ) :   1.1453
B(  3-C ,  4-C ) :   1.2569 B(  3-C ,  6-S ) :   0.1010 B(  3-C ,  8-H ) :   0.9879
B(  4-C ,  5-N ) :   1.5688 B(  4-C ,  9-H ) :   0.9765 B(  5-N ,  6-S ) :   1.2364

FINAL SINGLE POINT ENERGY      -681.538753973410

DIPOLE MOMENT
-------------
                                X             Y             Z
Electronic contribution:     -2.26824      -3.03516       1.85279
Nuclear contribution   :      2.96351       3.66122      -2.46355
                        -----------------------------------------
Total Dipole Moment    :      0.69527       0.62606      -0.61076
                        -----------------------------------------
Magnitude (a.u.)       :      1.11731
Magnitude (Debye)      :      2.83998

                             ****ORCA TERMINATED NORMALLY****
TOTAL RUN TIME: 0 days 0 hours 0 minutes 5 seconds 182 msec
