                         Program Version 3.0.3 - RELEASE   -
|  1> ! RI PBE def2-SVP def2-SVP/J NBO PAL2
|  2> % maxcore 2000
|  3> % output
|  4>     # printlevel mini
|  5>     print[ P_Basis ] 0
|  6>     print[ P_SCFInfo ] 1
|  7>     print[ P_SCFIterInfo ] 1
|  8>     print[ P_OrbEn ] 0
|  9>     print[ P_Cartesian ] 0
| 10> end
| 11> *xyz 0 1
| 12>  O        1.0848680000     0.0982800000     0.4058580000
| 13>  C        2.3217960000    -0.2516140000    -0.1683570000
| 14>  C        2.8028480000     0.8922060000    -0.9951590000
| 15>  C        2.1933810000     2.0980150000    -1.2011130000
| 16>  C        2.9793240000     2.9079100000    -2.0520010000
| 17>  N        4.1071700000     2.3960650000    -2.4828690000
| 18>  S        4.2693310000     0.8851260000    -1.8659510000
| 19>  H        0.7761380000    -0.6407170000     0.9346050000
| 20>  H        2.2267630000    -1.1440560000    -0.8029320000
| 21>  H        3.0683260000    -0.4800520000     0.6054010000
| 22>  H        1.2443180000     2.3741580000    -0.7656620000
| 23>  H        2.7138370000     3.9113890000    -2.3675110000
| 24> *
| 25>
| 26>                          ****END OF INPUT****
 Total Charge           Charge          ....    0
 Multiplicity           Mult            ....    1
 Number of Electrons    NEL             ....   60
 Basis Dimension        Dim             ....  127

MULLIKEN ATOMIC CHARGES
-----------------------
   0 O :   -0.265068
   1 C :    0.256867
   2 C :   -0.259881
   3 C :   -0.006566
   4 C :    0.090526
   5 N :   -0.289971
   6 S :    0.261534
   7 H :    0.161414
   8 H :    0.021874
   9 H :    0.020327
  10 H :   -0.003283
  11 H :    0.012227
Sum of atomic charges:   -0.0000000

LOEWDIN ATOMIC CHARGES
----------------------
   0 O :   -0.116011
   1 C :    0.053071
   2 C :   -0.209504
   3 C :   -0.089776
   4 C :   -0.036325
   5 N :   -0.270383
   6 S :    0.490087
   7 H :    0.076962
   8 H :    0.019999
   9 H :    0.020043
  10 H :    0.036514
  11 H :    0.025322

  Mayer bond orders larger than 0.1
B(  0-O ,  1-C ) :   1.1332 B(  0-O ,  7-H ) :   0.9728 B(  1-C ,  2-C ) :   1.0184
B(  1-C ,  8-H ) :   0.9188 B(  1-C ,  9-H ) :   0.9173 B(  2-C ,  3-C ) :   1.5471
B(  2-C ,  5-N ) :   0.1545 B(  2-C ,  6-S ) :   1.1672 B(  3-C ,  4-C ) :   1.2217
B(  3-C , 10-H ) :   0.9894 B(  4-C ,  5-N ) :   1.6022 B(  4-C , 11-H ) :   0.9705
B(  5-N ,  6-S ) :   1.1954

FINAL SINGLE POINT ENERGY      -682.727993670162

DIPOLE MOMENT
-------------
                                X             Y             Z
Electronic contribution:      4.12195       0.79381      -2.83407
Nuclear contribution   :     -4.72643      -1.74383       3.63623
                        -----------------------------------------
Total Dipole Moment    :     -0.60448      -0.95002       0.80215
                        -----------------------------------------
Magnitude (a.u.)       :      1.38253
Magnitude (Debye)      :      3.51411

                             ****ORCA TERMINATED NORMALLY****
TOTAL RUN TIME: 0 days 0 hours 0 minutes 5 seconds 760 msec
