                         Program Version 3.0.3 - RELEASE   -
|  1> ! RI PBE def2-SVP def2-SVP/J NBO PAL2
|  2> % maxcore 2000
|  3> % output
|  4>     # printlevel mini
|  5>     print[ P_Basis ] 0
|  6>     print[ P_SCFInfo ] 1
|  7>     print[ P_SCFIterInfo ] 1
|  8>     print[ P_OrbEn ] 0
|  9>     print[ P_Cartesian ] 0
| 10> end
| 11> *xyz 0 1
| 12>  O        2.4843350000    -1.2124030000     0.2272820000
| 13>  C        2.0934720000    -0.0932700000     0.0076420000
| 14>  C        2.7944860000     1.1240580000     0.4168760000
| 15>  C        2.3167860000     2.3823070000     0.1478980000
| 16>  S        3.3500080000     3.5831150000     0.7482670000
| 17>  C        4.4454730000     2.4234730000     1.3732580000
| 18>  C        4.0271030000     1.1555810000     1.1264560000
| 19>  H        1.1424570000     0.0807230000    -0.5389030000
| 20>  H        1.4073440000     2.6423830000    -0.3742990000
| 21>  H        5.3377400000     2.7460180000     1.8883310000
| 22>  H        4.5568060000     0.2621270000     1.4270920000
| 23> *
| 24>
| 25>                          ****END OF INPUT****
 Total Charge           Charge          ....    0
 Multiplicity           Mult            ....    1
 Number of Electrons    NEL             ....   58
 Basis Dimension        Dim             ....  122

MULLIKEN ATOMIC CHARGES
-----------------------
   0 O :   -0.160012
   1 C :    0.137710
   2 C :   -0.018476
   3 C :   -0.098431
   4 S :    0.128838
   5 C :   -0.095919
   6 C :    0.058320
   7 H :   -0.036386
   8 H :    0.036405
   9 H :    0.042030
  10 H :    0.005921
Sum of atomic charges:    0.0000000

LOEWDIN ATOMIC CHARGES
----------------------
   0 O :   -0.116881
   1 C :    0.079316
   2 C :   -0.123034
   3 C :   -0.177645
   4 S :    0.476941
   5 C :   -0.190027
   6 C :   -0.037506
   7 H :   -0.012400
   8 H :    0.030938
   9 H :    0.030104
  10 H :    0.040193

  Mayer bond orders larger than 0.1
B(  0-O ,  1-C ) :   2.1612 B(  1-C ,  2-C ) :   1.0121 B(  1-C ,  7-H ) :   0.9347
B(  2-C ,  3-C ) :   1.4423 B(  2-C ,  6-C ) :   1.2498 B(  3-C ,  4-S ) :   1.2192
B(  3-C ,  8-H ) :   0.9605 B(  4-S ,  5-C ) :   1.1659 B(  5-C ,  6-C ) :   1.5463
B(  5-C ,  9-H ) :   0.9653 B(  6-C , 10-H ) :   0.9986

FINAL SINGLE POINT ENERGY      -665.523912552910

DIPOLE MOMENT
-------------
                                X             Y             Z
Electronic contribution:      0.04562       2.03688       0.03912
Nuclear contribution   :      0.01394      -0.91988       0.00365
                        -----------------------------------------
Total Dipole Moment    :      0.05956       1.11700       0.04277
                        -----------------------------------------
Magnitude (a.u.)       :      1.11941
Magnitude (Debye)      :      2.84530

                             ****ORCA TERMINATED NORMALLY****
TOTAL RUN TIME: 0 days 0 hours 0 minutes 6 seconds 96 msec
