                         Program Version 3.0.3 - RELEASE   -
|  1> ! RI PBE def2-SVP def2-SVP/J NBO PAL2
|  2> % maxcore 2000
|  3> % output
|  4>     # printlevel mini
|  5>     print[ P_Basis ] 0
|  6>     print[ P_SCFInfo ] 1
|  7>     print[ P_SCFIterInfo ] 1
|  8>     print[ P_OrbEn ] 0
|  9>     print[ P_Cartesian ] 0
| 10> end
| 11> *xyz 0 1
| 12>  O        1.4210130000    -0.8523120000    -0.5658360000
| 13>  C        2.3608130000     0.0284090000     0.0225770000
| 14>  C        2.8292710000     1.0018250000    -1.0066670000
| 15>  C        2.8339380000     2.3566460000    -0.8393180000
| 16>  S        3.4738410000     3.1646290000    -2.1970170000
| 17>  C        3.7386510000     1.6944010000    -3.0223180000
| 18>  C        3.3528060000     0.6253350000    -2.2736760000
| 19>  H        1.2510780000    -1.5675610000     0.0516600000
| 20>  H        3.2227180000    -0.5359220000     0.4072710000
| 21>  H        1.9211540000     0.5747180000     0.8670130000
| 22>  H        2.4869740000     2.9166460000     0.0165250000
| 23>  H        4.1625980000     1.6959710000    -4.0149760000
| 24>  H        3.4192430000    -0.4007850000    -2.6099490000
| 25> *
| 26>
| 27>                          ****END OF INPUT****
 Total Charge           Charge          ....    0
 Multiplicity           Mult            ....    1
 Number of Electrons    NEL             ....   60
 Basis Dimension        Dim             ....  132

MULLIKEN ATOMIC CHARGES
-----------------------
   0 O :   -0.276394
   1 C :    0.247829
   2 C :   -0.074601
   3 C :   -0.124389
   4 S :    0.092749
   5 C :   -0.094549
   6 C :    0.049237
   7 H :    0.153772
   8 H :    0.007509
   9 H :   -0.015957
  10 H :    0.019097
  11 H :    0.030043
  12 H :   -0.014348
Sum of atomic charges:    0.0000000

LOEWDIN ATOMIC CHARGES
----------------------
   0 O :   -0.126252
   1 C :    0.066451
   2 C :   -0.085698
   3 C :   -0.208667
   4 S :    0.443608
   5 C :   -0.201629
   6 C :   -0.059786
   7 H :    0.069503
   8 H :    0.014183
   9 H :    0.007954
  10 H :    0.023689
  11 H :    0.025456
  12 H :    0.031188

  Mayer bond orders larger than 0.1
B(  0-O ,  1-C ) :   1.1101 B(  0-O ,  7-H ) :   0.9794 B(  1-C ,  2-C ) :   1.0644
B(  1-C ,  8-H ) :   0.9138 B(  1-C ,  9-H ) :   0.9171 B(  2-C ,  3-C ) :   1.5466
B(  2-C ,  6-C ) :   1.2826 B(  3-C ,  4-S ) :   1.1718 B(  3-C , 10-H ) :   0.9590
B(  4-S ,  5-C ) :   1.1854 B(  5-C ,  6-C ) :   1.5293 B(  5-C , 11-H ) :   0.9634
B(  6-C , 12-H ) :   0.9974

FINAL SINGLE POINT ENERGY      -666.709067528450

DIPOLE MOMENT
-------------
                                X             Y             Z
Electronic contribution:      1.12775       5.05093      -2.91788
Nuclear contribution   :     -0.97506      -5.41059       3.47656
                        -----------------------------------------
Total Dipole Moment    :      0.15269      -0.35967       0.55868
                        -----------------------------------------
Magnitude (a.u.)       :      0.68176
Magnitude (Debye)      :      1.73290

                             ****ORCA TERMINATED NORMALLY****
TOTAL RUN TIME: 0 days 0 hours 0 minutes 6 seconds 490 msec
