                         Program Version 3.0.3 - RELEASE   -
|  1> ! RI PBE def2-SVP def2-SVP/J NBO PAL2
|  2> % maxcore 2000
|  3> % output
|  4>     # printlevel mini
|  5>     print[ P_Basis ] 0
|  6>     print[ P_SCFInfo ] 1
|  7>     print[ P_SCFIterInfo ] 1
|  8>     print[ P_OrbEn ] 0
|  9>     print[ P_Cartesian ] 0
| 10> end
| 11> *xyz 0 1
| 12>  O        2.4511270000    -1.1784410000     0.3188340000
| 13>  C        2.2267360000    -0.0184160000     0.0921140000
| 14>  C        2.8892820000     0.7433660000    -0.9850240000
| 15>  N        2.5646350000     2.0143600000    -1.1426700000
| 16>  S        3.4180660000     2.6329450000    -2.3789990000
| 17>  C        4.2565280000     1.2019190000    -2.7437090000
| 18>  C        3.8573050000     0.2262970000    -1.8792950000
| 19>  H        1.4986470000     0.5712820000     0.6814230000
| 20>  H        4.9783100000     1.1392500000    -3.5450980000
| 21>  H        4.2134630000    -0.7935620000    -1.8624760000
| 22> *
| 23>
| 24>                          ****END OF INPUT****
 Total Charge           Charge          ....    0
 Multiplicity           Mult            ....    1
 Number of Electrons    NEL             ....   58
 Basis Dimension        Dim             ....  117

MULLIKEN ATOMIC CHARGES
-----------------------
   0 O :   -0.147738
   1 C :    0.174754
   2 C :   -0.040538
   3 N :   -0.276744
   4 S :    0.305382
   5 C :   -0.084333
   6 C :    0.024140
   7 H :   -0.015036
   8 H :    0.047172
   9 H :    0.012942
Sum of atomic charges:   -0.0000000

LOEWDIN ATOMIC CHARGES
----------------------
   0 O :   -0.103341
   1 C :    0.083996
   2 C :   -0.099641
   3 N :   -0.253716
   4 S :    0.542582
   5 C :   -0.190598
   6 C :   -0.054978
   7 H :   -0.002512
   8 H :    0.034239
   9 H :    0.043970

  Mayer bond orders larger than 0.1
B(  0-O ,  1-C ) :   2.1806 B(  1-C ,  2-C ) :   0.9758 B(  1-C ,  7-H ) :   0.9314
B(  2-C ,  3-N ) :   1.5279 B(  2-C ,  6-C ) :   1.2291 B(  3-N ,  4-S ) :   1.2414
B(  3-N ,  5-C ) :   0.1293 B(  4-S ,  5-C ) :   1.1853 B(  5-C ,  6-C ) :   1.5300
B(  5-C ,  8-H ) :   0.9583 B(  6-C ,  9-H ) :   0.9902

FINAL SINGLE POINT ENERGY      -681.540399422137

DIPOLE MOMENT
-------------
                                X             Y             Z
Electronic contribution:     -0.56242       2.66543      -0.46804
Nuclear contribution   :      1.19129      -2.21232      -0.44333
                        -----------------------------------------
Total Dipole Moment    :      0.62887       0.45311      -0.91137
                        -----------------------------------------
Magnitude (a.u.)       :      1.19641
Magnitude (Debye)      :      3.04102

                             ****ORCA TERMINATED NORMALLY****
TOTAL RUN TIME: 0 days 0 hours 0 minutes 5 seconds 934 msec
