                         Program Version 3.0.3 - RELEASE   -
|  1> ! RI PBE def2-SVP def2-SVP/J NBO PAL2
|  2> % maxcore 2000
|  3> % output
|  4>     # printlevel mini
|  5>     print[ P_Basis ] 0
|  6>     print[ P_SCFInfo ] 1
|  7>     print[ P_SCFIterInfo ] 1
|  8>     print[ P_OrbEn ] 0
|  9>     print[ P_Cartesian ] 0
| 10> end
| 11> *xyz 0 1
| 12>  O        1.6518930000    -1.1107010000    -0.3092540000
| 13>  C        2.1966650000     0.1489300000     0.0140510000
| 14>  C        2.8231660000     0.7371610000    -1.2119880000
| 15>  N        3.3939770000     1.9188280000    -1.1268790000
| 16>  S        3.9977790000     2.3364380000    -2.5866280000
| 17>  C        3.5026270000     0.9255280000    -3.3786840000
| 18>  C        2.8562970000     0.1193030000    -2.4849720000
| 19>  H        1.2502650000    -1.4790090000     0.4799860000
| 20>  H        2.9642910000     0.0688760000     0.7948550000
| 21>  H        1.4263780000     0.8407120000     0.3792740000
| 22>  H        3.6949620000     0.7455370000    -4.4263240000
| 23>  H        2.4289800000    -0.8478920000    -2.7023470000
| 24> *
| 25>
| 26>                          ****END OF INPUT****
 Total Charge           Charge          ....    0
 Multiplicity           Mult            ....    1
 Number of Electrons    NEL             ....   60
 Basis Dimension        Dim             ....  127

MULLIKEN ATOMIC CHARGES
-----------------------
   0 O :   -0.271843
   1 C :    0.260204
   2 C :   -0.111052
   3 N :   -0.314505
   4 S :    0.269522
   5 C :   -0.086920
   6 C :    0.024579
   7 H :    0.160549
   8 H :    0.020156
   9 H :    0.018283
  10 H :    0.034637
  11 H :   -0.003609
Sum of atomic charges:   -0.0000000

LOEWDIN ATOMIC CHARGES
----------------------
   0 O :   -0.122159
   1 C :    0.060199
   2 C :   -0.060781
   3 N :   -0.285154
   4 S :    0.508189
   5 C :   -0.202601
   6 C :   -0.082273
   7 H :    0.076067
   8 H :    0.021355
   9 H :    0.021165
  10 H :    0.029274
  11 H :    0.036718

  Mayer bond orders larger than 0.1
B(  0-O ,  1-C ) :   1.1246 B(  0-O ,  7-H ) :   0.9738 B(  1-C ,  2-C ) :   1.0198
B(  1-C ,  8-H ) :   0.9173 B(  1-C ,  9-H ) :   0.9161 B(  2-C ,  3-N ) :   1.5666
B(  2-C ,  6-C ) :   1.2717 B(  3-N ,  4-S ) :   1.1970 B(  3-N ,  5-C ) :   0.1409
B(  4-S ,  5-C ) :   1.2028 B(  5-C ,  6-C ) :   1.4989 B(  5-C , 10-H ) :   0.9550
B(  6-C , 11-H ) :   0.9891

FINAL SINGLE POINT ENERGY      -682.730923624843

DIPOLE MOMENT
-------------
                                X             Y             Z
Electronic contribution:      3.01945       4.51359      -2.75845
Nuclear contribution   :     -3.29387      -5.03539       2.81620
                        -----------------------------------------
Total Dipole Moment    :     -0.27442      -0.52180       0.05775
                        -----------------------------------------
Magnitude (a.u.)       :      0.59238
Magnitude (Debye)      :      1.50572

                             ****ORCA TERMINATED NORMALLY****
TOTAL RUN TIME: 0 days 0 hours 0 minutes 5 seconds 942 msec
