                         Program Version 3.0.3 - RELEASE   -
|  1> ! RI PBE def2-SVP def2-SVP/J NBO PAL2
|  2> % maxcore 2000
|  3> % output
|  4>     # printlevel mini
|  5>     print[ P_Basis ] 0
|  6>     print[ P_SCFInfo ] 1
|  7>     print[ P_SCFIterInfo ] 1
|  8>     print[ P_OrbEn ] 0
|  9>     print[ P_Cartesian ] 0
| 10> end
| 11> *xyz 0 1
| 12>  O        1.3546330000    -0.1558450000     0.8203140000
| 13>  C        2.2084400000     0.0477870000    -0.0062190000
| 14>  C        2.8428520000    -0.9797190000    -0.8162560000
| 15>  C        3.8146120000    -0.8056810000    -1.7688330000
| 16>  N        4.2479450000    -1.9274650000    -2.3912470000
| 17>  C        3.6126440000    -2.9634510000    -1.9205330000
| 18>  S        2.4578160000    -2.6471970000    -0.7023600000
| 19>  H        2.5788300000     1.0726180000    -0.2133140000
| 20>  H        4.2377210000     0.1546980000    -2.0377540000
| 21>  H        3.7893960000    -3.9743440000    -2.2656080000
| 22> *
| 23>
| 24>                          ****END OF INPUT****
 Total Charge           Charge          ....    0
 Multiplicity           Mult            ....    1
 Number of Electrons    NEL             ....   58
 Basis Dimension        Dim             ....  117

MULLIKEN ATOMIC CHARGES
-----------------------
   0 O :   -0.160463
   1 C :    0.160786
   2 C :   -0.200753
   3 C :    0.088901
   4 N :   -0.106388
   5 C :   -0.002445
   6 S :    0.168401
   7 H :   -0.017743
   8 H :    0.011169
   9 H :    0.058535
Sum of atomic charges:   -0.0000000

LOEWDIN ATOMIC CHARGES
----------------------
   0 O :   -0.115292
   1 C :    0.061392
   2 C :   -0.258478
   3 C :   -0.005036
   4 N :   -0.086362
   5 C :   -0.133771
   6 S :    0.482108
   7 H :   -0.002078
   8 H :    0.031732
   9 H :    0.025785

  Mayer bond orders larger than 0.1
B(  0-O ,  1-C ) :   2.1494 B(  1-C ,  2-C ) :   1.0270 B(  1-C ,  7-H ) :   0.9345
B(  2-C ,  3-C ) :   1.4363 B(  2-C ,  6-S ) :   1.1333 B(  3-C ,  4-N ) :   1.4027
B(  3-C ,  8-H ) :   0.9838 B(  4-N ,  5-C ) :   1.6264 B(  4-N ,  6-S ) :   0.1194
B(  5-C ,  6-S ) :   1.2048 B(  5-C ,  9-H ) :   0.9575

FINAL SINGLE POINT ENERGY      -681.548999857852

DIPOLE MOMENT
-------------
                                X             Y             Z
Electronic contribution:     -1.60818      -2.04046       1.29025
Nuclear contribution   :      1.97265       1.79188      -1.69753
                        -----------------------------------------
Total Dipole Moment    :      0.36447      -0.24857      -0.40727
                        -----------------------------------------
Magnitude (a.u.)       :      0.60041
Magnitude (Debye)      :      1.52613

                             ****ORCA TERMINATED NORMALLY****
TOTAL RUN TIME: 0 days 0 hours 0 minutes 5 seconds 550 msec
