                         Program Version 3.0.3 - RELEASE   -
|  1> ! RI PBE def2-SVP def2-SVP/J NBO PAL2
|  2> % maxcore 2000
|  3> % output
|  4>     # printlevel mini
|  5>     print[ P_Basis ] 0
|  6>     print[ P_SCFInfo ] 1
|  7>     print[ P_SCFIterInfo ] 1
|  8>     print[ P_OrbEn ] 0
|  9>     print[ P_Cartesian ] 0
| 10> end
| 11> *xyz 0 1
| 12>  O        0.9817570000    -0.6159680000     0.0466150000
| 13>  C        2.2068170000     0.0835090000     0.1429620000
| 14>  C        2.7118040000     0.3882040000    -1.2200210000
| 15>  C        3.0583640000     1.5990490000    -1.7406180000
| 16>  N        3.5311130000     1.5994730000    -3.0183280000
| 17>  C        3.5445020000     0.3912390000    -3.4870430000
| 18>  S        2.9869030000    -0.8186410000    -2.4073970000
| 19>  H        0.7500490000    -0.9427100000     0.9194670000
| 20>  H        2.9485580000    -0.5129910000     0.6917400000
| 21>  H        2.0874740000     1.0356580000     0.6769810000
| 22>  H        2.9779720000     2.5357030000    -1.2026900000
| 23>  H        3.8639760000     0.1360840000    -4.4891780000
| 24> *
| 25>
| 26>                          ****END OF INPUT****
 Total Charge           Charge          ....    0
 Multiplicity           Mult            ....    1
 Number of Electrons    NEL             ....   60
 Basis Dimension        Dim             ....  127

MULLIKEN ATOMIC CHARGES
-----------------------
   0 O :   -0.272114
   1 C :    0.243094
   2 C :   -0.241288
   3 C :    0.061279
   4 N :   -0.108563
   5 C :   -0.020583
   6 S :    0.118905
   7 H :    0.157445
   8 H :    0.020625
   9 H :    0.001681
  10 H :   -0.006134
  11 H :    0.045654
Sum of atomic charges:    0.0000000

LOEWDIN ATOMIC CHARGES
----------------------
   0 O :   -0.125686
   1 C :    0.050064
   2 C :   -0.220806
   3 C :   -0.045155
   4 N :   -0.092101
   5 C :   -0.156530
   6 S :    0.438951
   7 H :    0.071944
   8 H :    0.017699
   9 H :    0.017572
  10 H :    0.024294
  11 H :    0.019754

  Mayer bond orders larger than 0.1
B(  0-O ,  1-C ) :   1.1170 B(  0-O ,  7-H ) :   0.9768 B(  1-C ,  2-C ) :   1.0616
B(  1-C ,  8-H ) :   0.9150 B(  1-C ,  9-H ) :   0.9154 B(  2-C ,  3-C ) :   1.5570
B(  2-C ,  6-S ) :   1.1602 B(  3-C ,  4-N ) :   1.3694 B(  3-C , 10-H ) :   0.9840
B(  4-N ,  5-C ) :   1.6752 B(  4-N ,  6-S ) :   0.1273 B(  5-C ,  6-S ) :   1.1628
B(  5-C , 11-H ) :   0.9571

FINAL SINGLE POINT ENERGY      -682.735926047409

DIPOLE MOMENT
-------------
                                X             Y             Z
Electronic contribution:      0.89737      -1.88833      -3.94774
Nuclear contribution   :     -0.89340       1.39815       4.90630
                        -----------------------------------------
Total Dipole Moment    :      0.00397      -0.49018       0.95856
                        -----------------------------------------
Magnitude (a.u.)       :      1.07663
Magnitude (Debye)      :      2.73658

                             ****ORCA TERMINATED NORMALLY****
TOTAL RUN TIME: 0 days 0 hours 0 minutes 6 seconds 128 msec
