                         Program Version 3.0.3 - RELEASE   -
|  1> ! RI PBE def2-SVP def2-SVP/J NBO PAL2
|  2> % maxcore 2000
|  3> % output
|  4>     # printlevel mini
|  5>     print[ P_Basis ] 0
|  6>     print[ P_SCFInfo ] 1
|  7>     print[ P_SCFIterInfo ] 1
|  8>     print[ P_OrbEn ] 0
|  9>     print[ P_Cartesian ] 0
| 10> end
| 11> *xyz 0 1
| 12>  O        1.5586210000    -0.5927530000     0.8401030000
| 13>  C        2.2553130000     0.0036430000     0.0590750000
| 14>  C        2.9617920000    -0.6262660000    -1.0582750000
| 15>  C        3.7600240000     0.0409890000    -1.9569610000
| 16>  S        4.3706540000    -1.0648940000    -3.0708630000
| 17>  N        3.6304190000    -2.3803590000    -2.4212460000
| 18>  C        2.9302220000    -2.0099540000    -1.3808020000
| 19>  H        2.4041460000     1.0999320000     0.1482520000
| 20>  H        3.9886460000     1.0973030000    -1.9861060000
| 21>  H        2.3696640000    -2.7495610000    -0.8211980000
| 22> *
| 23>
| 24>                          ****END OF INPUT****
 Total Charge           Charge          ....    0
 Multiplicity           Mult            ....    1
 Number of Electrons    NEL             ....   58
 Basis Dimension        Dim             ....  117

MULLIKEN ATOMIC CHARGES
-----------------------
   0 O :   -0.151961
   1 C :    0.141929
   2 C :   -0.080159
   3 C :   -0.094413
   4 S :    0.300216
   5 N :   -0.279079
   6 C :    0.112732
   7 H :   -0.024769
   8 H :    0.045577
   9 H :    0.029927
Sum of atomic charges:    0.0000000

LOEWDIN ATOMIC CHARGES
----------------------
   0 O :   -0.107586
   1 C :    0.081108
   2 C :   -0.147434
   3 C :   -0.177467
   4 S :    0.541729
   5 N :   -0.252725
   6 C :   -0.000222
   7 H :   -0.009003
   8 H :    0.035788
   9 H :    0.035811

  Mayer bond orders larger than 0.1
B(  0-O ,  1-C ) :   2.1655 B(  1-C ,  2-C ) :   1.0041 B(  1-C ,  7-H ) :   0.9381
B(  2-C ,  3-C ) :   1.4502 B(  2-C ,  4-S ) :   0.1003 B(  2-C ,  6-C ) :   1.2179
B(  3-C ,  4-S ) :   1.2316 B(  3-C ,  5-N ) :   0.1210 B(  3-C ,  8-H ) :   0.9554
B(  4-S ,  5-N ) :   1.1929 B(  5-N ,  6-C ) :   1.6130 B(  6-C ,  9-H ) :   0.9780

FINAL SINGLE POINT ENERGY      -681.539407336221

DIPOLE MOMENT
-------------
                                X             Y             Z
Electronic contribution:      1.55569      -1.29080      -2.42908
Nuclear contribution   :     -0.98376       2.18544       1.90125
                        -----------------------------------------
Total Dipole Moment    :      0.57193       0.89464      -0.52782
                        -----------------------------------------
Magnitude (a.u.)       :      1.18579
Magnitude (Debye)      :      3.01403

                             ****ORCA TERMINATED NORMALLY****
TOTAL RUN TIME: 0 days 0 hours 0 minutes 5 seconds 911 msec
