                         Program Version 3.0.3 - RELEASE   -
|  1> ! RI PBE def2-SVP def2-SVP/J NBO PAL2
|  2> % maxcore 2000
|  3> % output
|  4>     # printlevel mini
|  5>     print[ P_Basis ] 0
|  6>     print[ P_SCFInfo ] 1
|  7>     print[ P_SCFIterInfo ] 1
|  8>     print[ P_OrbEn ] 0
|  9>     print[ P_Cartesian ] 0
| 10> end
| 11> *xyz 0 1
| 12>  O        1.2880700000     0.3411000000     0.5779530000
| 13>  C        2.3577190000    -0.2756620000    -0.1006640000
| 14>  C        2.8387980000     0.6344520000    -1.1811170000
| 15>  C        2.3253390000     1.8684410000    -1.4677680000
| 16>  S        3.1820380000     2.5341380000    -2.7679510000
| 17>  N        4.1956460000     1.2643070000    -2.9633840000
| 18>  C        3.9040330000     0.3480940000    -2.0705970000
| 19>  H        0.9845190000    -0.2494160000     1.2704220000
| 20>  H        2.0450840000    -1.2319590000    -0.5446900000
| 21>  H        3.1884200000    -0.4935670000     0.5862630000
| 22>  H        1.5091660000     2.3691980000    -0.9699030000
| 23>  H        4.4870670000    -0.5679260000    -2.0617850000
| 24> *
| 25>
| 26>                          ****END OF INPUT****
 Total Charge           Charge          ....    0
 Multiplicity           Mult            ....    1
 Number of Electrons    NEL             ....   60
 Basis Dimension        Dim             ....  127

MULLIKEN ATOMIC CHARGES
-----------------------
   0 O :   -0.270372
   1 C :    0.251605
   2 C :   -0.154286
   3 C :   -0.094068
   4 S :    0.257933
   5 N :   -0.284632
   6 C :    0.071496
   7 H :    0.159911
   8 H :    0.012290
   9 H :    0.014173
  10 H :    0.032439
  11 H :    0.003509
Sum of atomic charges:    0.0000000

LOEWDIN ATOMIC CHARGES
----------------------
   0 O :   -0.119352
   1 C :    0.069549
   2 C :   -0.112959
   3 C :   -0.199165
   4 S :    0.505926
   5 N :   -0.267423
   6 C :   -0.042809
   7 H :    0.075517
   8 H :    0.017743
   9 H :    0.018271
  10 H :    0.031725
  11 H :    0.022976

  Mayer bond orders larger than 0.1
B(  0-O ,  1-C ) :   1.1268 B(  0-O ,  7-H ) :   0.9748 B(  1-C ,  2-C ) :   1.0330
B(  1-C ,  8-H ) :   0.9197 B(  1-C ,  9-H ) :   0.9191 B(  2-C ,  3-C ) :   1.5473
B(  2-C ,  4-S ) :   0.1042 B(  2-C ,  6-C ) :   1.2508 B(  3-C ,  4-S ) :   1.1725
B(  3-C ,  5-N ) :   0.1329 B(  3-C , 10-H ) :   0.9567 B(  4-S ,  5-N ) :   1.2110
B(  5-N ,  6-C ) :   1.6019 B(  6-C , 11-H ) :   0.9810

FINAL SINGLE POINT ENERGY      -682.728358508416

DIPOLE MOMENT
-------------
                                X             Y             Z
Electronic contribution:      1.50261       5.02654      -4.80027
Nuclear contribution   :     -2.04755      -5.72049       5.80377
                        -----------------------------------------
Total Dipole Moment    :     -0.54494      -0.69395       1.00350
                        -----------------------------------------
Magnitude (a.u.)       :      1.33624
Magnitude (Debye)      :      3.39645

                             ****ORCA TERMINATED NORMALLY****
TOTAL RUN TIME: 0 days 0 hours 0 minutes 5 seconds 784 msec
