                         Program Version 3.0.3 - RELEASE   -
|  1> ! RI PBE def2-SVP def2-SVP/J NBO PAL2
|  2> % maxcore 2000
|  3> % output
|  4>     # printlevel mini
|  5>     print[ P_Basis ] 0
|  6>     print[ P_SCFInfo ] 1
|  7>     print[ P_SCFIterInfo ] 1
|  8>     print[ P_OrbEn ] 0
|  9>     print[ P_Cartesian ] 0
| 10> end
| 11> *xyz 0 1
| 12>  O        1.0456980000    -0.0071960000    -0.5580300000
| 13>  C        2.0861940000     0.0734210000     0.0351900000
| 14>  C        2.8187500000    -1.0607080000     0.6221080000
| 15>  C        4.0055750000    -0.9027600000     1.2878230000
| 16>  S        4.5703950000    -2.4062250000     1.8304060000
| 17>  C        3.1782060000    -3.1525060000     1.1296330000
| 18>  N        2.3622580000    -2.3466930000     0.5411970000
| 19>  H        2.5903250000     1.0520000000     0.1862850000
| 20>  H        4.5474290000     0.0129870000     1.4711640000
| 21>  H        3.0330700000    -4.2230310000     1.1985240000
| 22> *
| 23>
| 24>                          ****END OF INPUT****
 Total Charge           Charge          ....    0
 Multiplicity           Mult            ....    1
 Number of Electrons    NEL             ....   58
 Basis Dimension        Dim             ....  117

MULLIKEN ATOMIC CHARGES
-----------------------
   0 O :   -0.129644
   1 C :    0.149258
   2 C :   -0.040451
   3 C :   -0.079411
   4 S :    0.113802
   5 C :   -0.014218
   6 N :   -0.063401
   7 H :   -0.036988
   8 H :    0.041063
   9 H :    0.059990
Sum of atomic charges:   -0.0000000

LOEWDIN ATOMIC CHARGES
----------------------
   0 O :   -0.090010
   1 C :    0.071103
   2 C :   -0.101260
   3 C :   -0.183739
   4 S :    0.452811
   5 C :   -0.138983
   6 N :   -0.058211
   7 H :   -0.013340
   8 H :    0.035659
   9 H :    0.025970

  Mayer bond orders larger than 0.1
B(  0-O ,  1-C ) :   2.2007 B(  1-C ,  2-C ) :   0.9835 B(  1-C ,  7-H ) :   0.9382
B(  2-C ,  3-C ) :   1.4594 B(  2-C ,  6-N ) :   1.3437 B(  3-C ,  4-S ) :   1.2139
B(  3-C ,  8-H ) :   0.9566 B(  4-S ,  5-C ) :   1.1346 B(  4-S ,  6-N ) :   0.1209
B(  5-C ,  6-N ) :   1.7049 B(  5-C ,  9-H ) :   0.9565

FINAL SINGLE POINT ENERGY      -681.544984055666

DIPOLE MOMENT
-------------
                                X             Y             Z
Electronic contribution:      0.69659      -1.59638       0.63699
Nuclear contribution   :      0.71320       1.40624       0.21181
                        -----------------------------------------
Total Dipole Moment    :      1.40979      -0.19014       0.84880
                        -----------------------------------------
Magnitude (a.u.)       :      1.65654
Magnitude (Debye)      :      4.21058

                             ****ORCA TERMINATED NORMALLY****
TOTAL RUN TIME: 0 days 0 hours 0 minutes 5 seconds 597 msec
