                         Program Version 3.0.3 - RELEASE   -
|  1> ! RI PBE def2-SVP def2-SVP/J NBO PAL2
|  2> % maxcore 2000
|  3> % output
|  4>     # printlevel mini
|  5>     print[ P_Basis ] 0
|  6>     print[ P_SCFInfo ] 1
|  7>     print[ P_SCFIterInfo ] 1
|  8>     print[ P_OrbEn ] 0
|  9>     print[ P_Cartesian ] 0
| 10> end
| 11> *xyz 0 1
| 12>  O        1.4571160000     0.6920690000     0.3499320000
| 13>  C        2.4166850000    -0.2012100000    -0.1650600000
| 14>  C        2.8862300000     0.2973980000    -1.4890040000
| 15>  C        2.4616130000     1.4316300000    -2.1103870000
| 16>  S        3.2716110000     1.6013410000    -3.6020670000
| 17>  C        4.1197060000     0.1457870000    -3.2900000000
| 18>  N        3.8268180000    -0.4262280000    -2.1647950000
| 19>  H        1.1581730000     0.3604610000     1.1985880000
| 20>  H        2.0021000000    -1.2101160000    -0.2987450000
| 21>  H        3.2853770000    -0.2930330000     0.5017330000
| 22>  H        1.7327430000     2.1441100000    -1.7607160000
| 23>  H        4.8406270000    -0.2451100000    -3.9958900000
| 24> *
| 25>
| 26>                          ****END OF INPUT****
 Total Charge           Charge          ....    0
 Multiplicity           Mult            ....    1
 Number of Electrons    NEL             ....   60
 Basis Dimension        Dim             ....  127

MULLIKEN ATOMIC CHARGES
-----------------------
   0 O :   -0.271706
   1 C :    0.264292
   2 C :   -0.119457
   3 C :   -0.086438
   4 S :    0.082093
   5 C :   -0.017774
   6 N :   -0.115589
   7 H :    0.161240
   8 H :    0.013248
   9 H :    0.017586
  10 H :    0.028752
  11 H :    0.043753
Sum of atomic charges:   -0.0000000

LOEWDIN ATOMIC CHARGES
----------------------
   0 O :   -0.120553
   1 C :    0.061714
   2 C :   -0.067490
   3 C :   -0.213943
   4 S :    0.429456
   5 C :   -0.159974
   6 N :   -0.097323
   7 H :    0.075740
   8 H :    0.020091
   9 H :    0.020668
  10 H :    0.032317
  11 H :    0.019299

  Mayer bond orders larger than 0.1
B(  0-O ,  1-C ) :   1.1277 B(  0-O ,  7-H ) :   0.9745 B(  1-C ,  2-C ) :   1.0317
B(  1-C ,  8-H ) :   0.9103 B(  1-C ,  9-H ) :   0.9129 B(  2-C ,  3-C ) :   1.5591
B(  2-C ,  6-N ) :   1.3544 B(  3-C ,  4-S ) :   1.1519 B(  3-C , 10-H ) :   0.9594
B(  4-S ,  5-C ) :   1.1742 B(  4-S ,  6-N ) :   0.1307 B(  5-C ,  6-N ) :   1.6530
B(  5-C , 11-H ) :   0.9590

FINAL SINGLE POINT ENERGY      -682.739677458138

DIPOLE MOMENT
-------------
                                X             Y             Z
Electronic contribution:      1.35341       2.45522      -4.97891
Nuclear contribution   :     -1.56817      -2.47230       5.33663
                        -----------------------------------------
Total Dipole Moment    :     -0.21476      -0.01708       0.35772
                        -----------------------------------------
Magnitude (a.u.)       :      0.41759
Magnitude (Debye)      :      1.06142

                             ****ORCA TERMINATED NORMALLY****
TOTAL RUN TIME: 0 days 0 hours 0 minutes 5 seconds 960 msec
