                         Program Version 3.0.3 - RELEASE   -
|  1> ! RI PBE def2-SVP def2-SVP/J NBO PAL2
|  2> % maxcore 2000
|  3> % output
|  4>     # printlevel mini
|  5>     print[ P_Basis ] 0
|  6>     print[ P_SCFInfo ] 1
|  7>     print[ P_SCFIterInfo ] 1
|  8>     print[ P_OrbEn ] 0
|  9>     print[ P_Cartesian ] 0
| 10> end
| 11> *xyz 0 1
| 12>  O        2.2986210000    -1.1652240000     0.4586830000
| 13>  C        2.0409460000    -0.0331780000     0.1408600000
| 14>  C        2.7645890000     0.7106620000    -0.8956180000
| 15>  N        2.4719260000     1.9382790000    -1.2288950000
| 16>  C        3.2966670000     2.3749760000    -2.2077360000
| 17>  C        4.2331050000     1.4705790000    -2.6298860000
| 18>  S        4.0765350000     0.0171150000    -1.7693700000
| 19>  H        1.2252480000     0.5499520000     0.6085260000
| 20>  H        3.1846320000     3.3779520000    -2.5976970000
| 21>  H        4.9873210000     1.5985880000    -3.3914670000
| 22> *
| 23>
| 24>                          ****END OF INPUT****
 Total Charge           Charge          ....    0
 Multiplicity           Mult            ....    1
 Number of Electrons    NEL             ....   58
 Basis Dimension        Dim             ....  117

MULLIKEN ATOMIC CHARGES
-----------------------
   0 O :   -0.155396
   1 C :    0.192312
   2 C :   -0.183221
   3 N :   -0.073456
   4 C :    0.076655
   5 C :   -0.086930
   6 S :    0.175123
   7 H :   -0.008269
   8 H :    0.014083
   9 H :    0.049099
Sum of atomic charges:   -0.0000000

LOEWDIN ATOMIC CHARGES
----------------------
   0 O :   -0.107902
   1 C :    0.063348
   2 C :   -0.218213
   3 N :   -0.067964
   4 C :   -0.033128
   5 C :   -0.194897
   6 S :    0.490125
   7 H :    0.003474
   8 H :    0.030034
   9 H :    0.035124

  Mayer bond orders larger than 0.1
B(  0-O ,  1-C ) :   2.1575 B(  1-C ,  2-C ) :   0.9852 B(  1-C ,  7-H ) :   0.9272
B(  2-C ,  3-N ) :   1.6174 B(  2-C ,  6-S ) :   1.1052 B(  3-N ,  4-C ) :   1.3963
B(  3-N ,  6-S ) :   0.1377 B(  4-C ,  5-C ) :   1.4878 B(  4-C ,  8-H ) :   0.9848
B(  5-C ,  6-S ) :   1.2273 B(  5-C ,  9-H ) :   0.9618

FINAL SINGLE POINT ENERGY      -681.550252229272

DIPOLE MOMENT
-------------
                                X             Y             Z
Electronic contribution:      0.74343      -2.81015       0.69348
Nuclear contribution   :     -0.17585       3.46765      -1.54454
                        -----------------------------------------
Total Dipole Moment    :      0.56758       0.65750      -0.85106
                        -----------------------------------------
Magnitude (a.u.)       :      1.21604
Magnitude (Debye)      :      3.09093

                             ****ORCA TERMINATED NORMALLY****
TOTAL RUN TIME: 0 days 0 hours 0 minutes 5 seconds 330 msec
