                         Program Version 3.0.3 - RELEASE   -
|  1> ! RI PBE def2-SVP def2-SVP/J NBO PAL2
|  2> % maxcore 2000
|  3> % output
|  4>     # printlevel mini
|  5>     print[ P_Basis ] 0
|  6>     print[ P_SCFInfo ] 1
|  7>     print[ P_SCFIterInfo ] 1
|  8>     print[ P_OrbEn ] 0
|  9>     print[ P_Cartesian ] 0
| 10> end
| 11> *xyz 0 1
| 12>  O        1.0164380000    -0.5308000000     0.2466710000
| 13>  C        2.2265950000     0.1437480000    -0.0067510000
| 14>  C        2.7141790000    -0.2362620000    -1.3642550000
| 15>  N        3.6396700000     0.4074540000    -2.0045610000
| 16>  C        3.9052670000    -0.1918640000    -3.1996020000
| 17>  C        3.1703050000    -1.3021470000    -3.4755810000
| 18>  S        2.0973110000    -1.6183770000    -2.1863480000
| 19>  H        0.8467410000    -0.5205770000     1.1904170000
| 20>  H        2.9970550000    -0.1247160000     0.7286600000
| 21>  H        2.1060770000     1.2337830000     0.0213400000
| 22>  H        4.6563360000     0.2335800000    -3.8521630000
| 23>  H        3.1965270000    -1.9242320000    -4.3565280000
| 24> *
| 25>
| 26>                          ****END OF INPUT****
 Total Charge           Charge          ....    0
 Multiplicity           Mult            ....    1
 Number of Electrons    NEL             ....   60
 Basis Dimension        Dim             ....  127

MULLIKEN ATOMIC CHARGES
-----------------------
   0 O :   -0.274984
   1 C :    0.254858
   2 C :   -0.227505
   3 N :   -0.104824
   4 C :    0.066312
   5 C :   -0.104466
   6 S :    0.134700
   7 H :    0.163863
   8 H :    0.030726
   9 H :    0.028146
  10 H :    0.000881
  11 H :    0.032292
Sum of atomic charges:    0.0000000

LOEWDIN ATOMIC CHARGES
----------------------
   0 O :   -0.123536
   1 C :    0.047182
   2 C :   -0.179359
   3 N :   -0.103180
   4 C :   -0.043518
   5 C :   -0.224110
   6 S :    0.447106
   7 H :    0.077376
   8 H :    0.025235
   9 H :    0.024501
  10 H :    0.023888
  11 H :    0.028416

  Mayer bond orders larger than 0.1
B(  0-O ,  1-C ) :   1.1140 B(  0-O ,  7-H ) :   0.9741 B(  1-C ,  2-C ) :   1.0115
B(  1-C ,  8-H ) :   0.9191 B(  1-C ,  9-H ) :   0.9195 B(  2-C ,  3-N ) :   1.6814
B(  2-C ,  6-S ) :   1.1503 B(  3-N ,  4-C ) :   1.3457 B(  3-N ,  6-S ) :   0.1237
B(  4-C ,  5-C ) :   1.5460 B(  4-C , 10-H ) :   0.9874 B(  5-C ,  6-S ) :   1.1697
B(  5-C , 11-H ) :   0.9614

FINAL SINGLE POINT ENERGY      -682.739807289482

DIPOLE MOMENT
-------------
                                X             Y             Z
Electronic contribution:     -1.11267      -2.27839      -1.68238
Nuclear contribution   :      1.02101       2.05024       2.19317
                        -----------------------------------------
Total Dipole Moment    :     -0.09166      -0.22815       0.51079
                        -----------------------------------------
Magnitude (a.u.)       :      0.56689
Magnitude (Debye)      :      1.44092

                             ****ORCA TERMINATED NORMALLY****
TOTAL RUN TIME: 0 days 0 hours 0 minutes 5 seconds 904 msec
