                         Program Version 3.0.3 - RELEASE   -
|  1> ! RI PBE def2-SVP def2-SVP/J NBO PAL2
|  2> % maxcore 2000
|  3> % output
|  4>     # printlevel mini
|  5>     print[ P_Basis ] 0
|  6>     print[ P_SCFInfo ] 1
|  7>     print[ P_SCFIterInfo ] 1
|  8>     print[ P_OrbEn ] 0
|  9>     print[ P_Cartesian ] 0
| 10> end
| 11> *xyz 0 1
| 12>  O        2.8740400000    -0.7343340000    -0.8255540000
| 13>  C        2.2987300000    -0.0303010000    -0.0688150000
| 14>  S        3.1170560000     1.1713710000     1.0539700000
| 15>  O        2.7046120000     2.4734320000     0.6277660000
| 16>  O        2.8676840000     0.7174540000     2.3877330000
| 17>  C        4.7683040000     0.9556250000     0.6856480000
| 18>  C        5.9277810000     0.7979560000     0.4206970000
| 19>  H        1.2013920000     0.0120050000     0.0764420000
| 20>  H        6.9600010000     0.6620030000     0.1892140000
| 21> *
| 22>
| 23>                          ****END OF INPUT****
 Total Charge           Charge          ....    0
 Multiplicity           Mult            ....    1
 Number of Electrons    NEL             ....   60
 Basis Dimension        Dim             ....  112

MULLIKEN ATOMIC CHARGES
-----------------------
   0 O :   -0.089990
   1 C :    0.126659
   2 S :    0.594676
   3 O :   -0.364672
   4 O :   -0.365147
   5 C :    0.433681
   6 C :   -0.444164
   7 H :    0.073385
   8 H :    0.035572
Sum of atomic charges:   -0.0000000

LOEWDIN ATOMIC CHARGES
----------------------
   0 O :   -0.043896
   1 C :   -0.030019
   2 S :    1.024444
   3 O :   -0.414197
   4 O :   -0.414436
   5 C :   -0.212598
   6 C :    0.026758
   7 H :    0.012424
   8 H :    0.051521

  Mayer bond orders larger than 0.1
B(  0-O ,  1-C ) :   2.1860 B(  1-C ,  2-S ) :   0.7170 B(  1-C ,  7-H ) :   0.8938
B(  2-S ,  3-O ) :   1.7411 B(  2-S ,  4-O ) :   1.7410 B(  2-S ,  5-C ) :   0.7734
B(  5-C ,  6-C ) :   2.3782 B(  5-C ,  8-H ) :  -0.1119 B(  6-C ,  8-H ) :   1.1013

FINAL SINGLE POINT ENERGY      -738.273572066680

DIPOLE MOMENT
-------------
                                X             Y             Z
Electronic contribution:     -0.75036       0.52014       0.58795
Nuclear contribution   :      1.29452      -0.93872      -1.05523
                        -----------------------------------------
Total Dipole Moment    :      0.54415      -0.41858      -0.46728
                        -----------------------------------------
Magnitude (a.u.)       :      0.83046
Magnitude (Debye)      :      2.11086

                             ****ORCA TERMINATED NORMALLY****
TOTAL RUN TIME: 0 days 0 hours 0 minutes 5 seconds 704 msec
