                         Program Version 3.0.3 - RELEASE   -
|  1> ! RI PBE def2-SVP def2-SVP/J NBO PAL2
|  2> % maxcore 2000
|  3> % output
|  4>     # printlevel mini
|  5>     print[ P_Basis ] 0
|  6>     print[ P_SCFInfo ] 1
|  7>     print[ P_SCFIterInfo ] 1
|  8>     print[ P_OrbEn ] 0
|  9>     print[ P_Cartesian ] 0
| 10> end
| 11> *xyz 0 1
| 12>  O        2.6886610000    -1.0880320000     0.7321610000
| 13>  C        2.3629150000     0.1614870000     0.2275680000
| 14>  S        3.0172940000     0.3829430000    -1.4350020000
| 15>  O        2.7040520000    -0.8433000000    -2.1279890000
| 16>  O        2.5592540000     1.6512270000    -1.9308580000
| 17>  C        4.7626830000     0.4375270000    -1.2196730000
| 18>  C        5.4377400000     1.5249900000    -1.5487490000
| 19>  H        2.3903830000    -1.7473810000     0.0930710000
| 20>  H        2.7823730000     0.9330500000     0.8739470000
| 21>  H        1.2847920000     0.3329860000     0.1028190000
| 22>  H        5.2043870000    -0.4818720000    -0.8537610000
| 23>  H        4.9214210000     2.4031060000    -1.9208320000
| 24>  H        6.5182550000     1.5587600000    -1.4671930000
| 25> *
| 26>
| 27>                          ****END OF INPUT****
 Total Charge           Charge          ....    0
 Multiplicity           Mult            ....    1
 Number of Electrons    NEL             ....   64
 Basis Dimension        Dim             ....  132

MULLIKEN ATOMIC CHARGES
-----------------------
   0 O :   -0.255488
   1 C :    0.113514
   2 S :    0.586030
   3 O :   -0.425166
   4 O :   -0.402191
   5 C :   -0.102834
   6 C :    0.025931
   7 H :    0.168083
   8 H :    0.057560
   9 H :    0.061780
  10 H :    0.048908
  11 H :    0.065286
  12 H :    0.058587
Sum of atomic charges:   -0.0000000

LOEWDIN ATOMIC CHARGES
----------------------
   0 O :   -0.101412
   1 C :   -0.069934
   2 S :    1.070034
   3 O :   -0.475263
   4 O :   -0.464189
   5 C :   -0.186631
   6 C :   -0.006495
   7 H :    0.071377
   8 H :    0.029852
   9 H :    0.019561
  10 H :    0.034509
  11 H :    0.037931
  12 H :    0.040660

  Mayer bond orders larger than 0.1
B(  0-O ,  1-C ) :   1.0873 B(  0-O ,  7-H ) :   0.9599 B(  1-C ,  2-S ) :   0.8033
B(  1-C ,  8-H ) :   0.9305 B(  1-C ,  9-H ) :   0.9155 B(  2-S ,  3-O ) :   1.6718
B(  2-S ,  4-O ) :   1.7252 B(  2-S ,  5-C ) :   0.8369 B(  5-C ,  6-C ) :   1.9674
B(  5-C , 10-H ) :   0.9370 B(  6-C , 11-H ) :   0.9338 B(  6-C , 12-H ) :   0.9455

FINAL SINGLE POINT ENERGY      -740.745757562946

DIPOLE MOMENT
-------------
                                X             Y             Z
Electronic contribution:     -2.61284      -1.02964      -2.40481
Nuclear contribution   :      3.30391       1.11909       3.16042
                        -----------------------------------------
Total Dipole Moment    :      0.69106       0.08945       0.75561
                        -----------------------------------------
Magnitude (a.u.)       :      1.02787
Magnitude (Debye)      :      2.61264

                             ****ORCA TERMINATED NORMALLY****
TOTAL RUN TIME: 0 days 0 hours 0 minutes 6 seconds 571 msec
