                         Program Version 3.0.3 - RELEASE   -
|  1> ! RI PBE def2-SVP def2-SVP/J NBO PAL2
|  2> % maxcore 2000
|  3> % output
|  4>     # printlevel mini
|  5>     print[ P_Basis ] 0
|  6>     print[ P_SCFInfo ] 1
|  7>     print[ P_SCFIterInfo ] 1
|  8>     print[ P_OrbEn ] 0
|  9>     print[ P_Cartesian ] 0
| 10> end
| 11> *xyz 0 1
| 12>  O        2.7740320000    -0.8383510000     0.9713410000
| 13>  C        2.4728090000    -0.0772710000    -0.1403700000
| 14>  S        2.9571290000     1.6410790000     0.0665350000
| 15>  O        2.5502670000     2.3745200000    -1.0917420000
| 16>  O        2.5276320000     2.0264410000     1.3807490000
| 17>  C        4.6710940000     1.5649590000     0.0822800000
| 18>  C        5.8699510000     1.5115740000     0.0870190000
| 19>  H        2.3815220000    -0.4138890000     1.7441120000
| 20>  H        1.3989520000     0.0033630000    -0.3642340000
| 21>  H        2.9970210000    -0.4765800000    -1.0092710000
| 22>  H        6.9353920000     1.4715660000     0.0927790000
| 23> *
| 24>
| 25>                          ****END OF INPUT****
 Total Charge           Charge          ....    0
 Multiplicity           Mult            ....    1
 Number of Electrons    NEL             ....   62
 Basis Dimension        Dim             ....  122

MULLIKEN ATOMIC CHARGES
-----------------------
   0 O :   -0.244043
   1 C :    0.134528
   2 S :    0.581607
   3 O :   -0.376199
   4 O :   -0.391842
   5 C :    0.426041
   6 C :   -0.451563
   7 H :    0.170782
   8 H :    0.060775
   9 H :    0.061521
  10 H :    0.028395
Sum of atomic charges:   -0.0000000

LOEWDIN ATOMIC CHARGES
----------------------
   0 O :   -0.090829
   1 C :   -0.061550
   2 S :    1.058194
   3 O :   -0.433779
   4 O :   -0.444861
   5 C :   -0.210027
   6 C :    0.004597
   7 H :    0.075536
   8 H :    0.020750
   9 H :    0.034031
  10 H :    0.047939

  Mayer bond orders larger than 0.1
B(  0-O ,  1-C ) :   1.0976 B(  0-O ,  7-H ) :   0.9599 B(  1-C ,  2-S ) :   0.8333
B(  1-C ,  8-H ) :   0.9115 B(  1-C ,  9-H ) :   0.9269 B(  2-S ,  3-O ) :   1.7497
B(  2-S ,  4-O ) :   1.7301 B(  2-S ,  5-C ) :   0.7842 B(  5-C ,  6-C ) :   2.4027
B(  5-C , 10-H ) :  -0.1133 B(  6-C , 10-H ) :   1.1040

FINAL SINGLE POINT ENERGY      -739.484512132492

DIPOLE MOMENT
-------------
                                X             Y             Z
Electronic contribution:     -0.04988       3.19276       0.24248
Nuclear contribution   :      0.64407      -4.03343      -0.27355
                        -----------------------------------------
Total Dipole Moment    :      0.59420      -0.84067      -0.03107
                        -----------------------------------------
Magnitude (a.u.)       :      1.02993
Magnitude (Debye)      :      2.61789

                             ****ORCA TERMINATED NORMALLY****
TOTAL RUN TIME: 0 days 0 hours 0 minutes 6 seconds 37 msec
