                         Program Version 3.0.3 - RELEASE   -
|  1> ! RI PBE def2-SVP def2-SVP/J NBO PAL2
|  2> % maxcore 2000
|  3> % output
|  4>     # printlevel mini
|  5>     print[ P_Basis ] 0
|  6>     print[ P_SCFInfo ] 1
|  7>     print[ P_SCFIterInfo ] 1
|  8>     print[ P_OrbEn ] 0
|  9>     print[ P_Cartesian ] 0
| 10> end
| 11> *xyz 0 1
| 12>  O        0.9825140000     0.0318300000     0.1831530000
| 13>  S        2.4129960000     0.0313400000     0.2986520000
| 14>  O        3.0129340000     0.0317640000     1.6023740000
| 15>  C        3.1147350000     1.3096330000    -0.7052390000
| 16>  C        3.8093400000     0.7682890000    -1.6989900000
| 17>  C        3.8087770000    -0.7086650000    -1.6982540000
| 18>  C        3.1137600000    -1.2484870000    -0.7039640000
| 19>  H        2.9468680000     2.3487180000    -0.4650350000
| 20>  H        4.3364380000     1.3387780000    -2.4530440000
| 21>  H        4.3354390000    -1.2803070000    -2.4517390000
| 22>  H        2.9451000000    -2.2872040000    -0.4627240000
| 23> *
| 24>
| 25>                          ****END OF INPUT****
 Total Charge           Charge          ....    0
 Multiplicity           Mult            ....    1
 Number of Electrons    NEL             ....   60
 Basis Dimension        Dim             ....  122

MULLIKEN ATOMIC CHARGES
-----------------------
   0 O :   -0.391651
   1 S :    0.605836
   2 O :   -0.391131
   3 C :   -0.016371
   4 C :    0.025037
   5 C :    0.025052
   6 C :   -0.016324
   7 H :    0.056320
   8 H :    0.023471
   9 H :    0.023477
  10 H :    0.056285
Sum of atomic charges:   -0.0000000

LOEWDIN ATOMIC CHARGES
----------------------
   0 O :   -0.438059
   1 S :    1.089358
   2 O :   -0.437936
   3 C :   -0.157415
   4 C :   -0.028279
   5 C :   -0.028277
   6 C :   -0.157403
   7 H :    0.039787
   8 H :    0.039220
   9 H :    0.039222
  10 H :    0.039782

  Mayer bond orders larger than 0.1
B(  0-O ,  1-S ) :   1.7098 B(  1-S ,  2-O ) :   1.7109 B(  1-S ,  3-C ) :   0.8327
B(  1-S ,  6-C ) :   0.8327 B(  3-C ,  4-C ) :   1.7406 B(  3-C ,  7-H ) :   0.9649
B(  4-C ,  5-C ) :   1.0831 B(  4-C ,  8-H ) :   0.9877 B(  5-C ,  6-C ) :   1.7405
B(  5-C ,  9-H ) :   0.9877 B(  6-C , 10-H ) :   0.9649

FINAL SINGLE POINT ENERGY      -702.473126426213

DIPOLE MOMENT
-------------
                                X             Y             Z
Electronic contribution:     -2.31390       0.00251       3.30852
Nuclear contribution   :      3.23706      -0.00354      -4.63109
                        -----------------------------------------
Total Dipole Moment    :      0.92316      -0.00104      -1.32257
                        -----------------------------------------
Magnitude (a.u.)       :      1.61289
Magnitude (Debye)      :      4.09964

                             ****ORCA TERMINATED NORMALLY****
TOTAL RUN TIME: 0 days 0 hours 0 minutes 6 seconds 98 msec
