                         Program Version 3.0.3 - RELEASE   -
|  1> ! RI PBE def2-SVP def2-SVP/J NBO PAL2
|  2> % maxcore 2000
|  3> % output
|  4>     # printlevel mini
|  5>     print[ P_Basis ] 0
|  6>     print[ P_SCFInfo ] 1
|  7>     print[ P_SCFIterInfo ] 1
|  8>     print[ P_OrbEn ] 0
|  9>     print[ P_Cartesian ] 0
| 10> end
| 11> *xyz 0 1
| 12>  O        1.0413120000    -0.0526250000     0.4869900000
| 13>  S        2.4652610000    -0.0526760000     0.2932280000
| 14>  O        3.3519020000    -0.0524650000     1.4241760000
| 15>  C        2.9173850000    -1.3984180000    -0.8212750000
| 16>  C        3.4154910000    -0.7175800000    -2.0498360000
| 17>  C        3.4155030000     0.6113030000    -2.0500940000
| 18>  C        2.9174090000     1.2926260000    -0.8217960000
| 19>  H        2.0250620000    -2.0048600000    -0.9917570000
| 20>  H        3.6765600000    -2.0046490000    -0.3220610000
| 21>  H        3.7577940000    -1.3050140000    -2.8939290000
| 22>  H        3.7578170000     1.1984030000    -2.8944140000
| 23>  H        2.0250980000     1.8990190000    -0.9925130000
| 24>  H        3.6765960000     1.8990360000    -0.3228180000
| 25> *
| 26>
| 27>                          ****END OF INPUT****
 Total Charge           Charge          ....    0
 Multiplicity           Mult            ....    1
 Number of Electrons    NEL             ....   62
 Basis Dimension        Dim             ....  132

MULLIKEN ATOMIC CHARGES
-----------------------
   0 O :   -0.414958
   1 S :    0.534588
   2 O :   -0.414334
   3 C :    0.048529
   4 C :   -0.081027
   5 C :   -0.081027
   6 C :    0.048543
   7 H :    0.078323
   8 H :    0.078241
   9 H :    0.023283
  10 H :    0.023280
  11 H :    0.078319
  12 H :    0.078240
Sum of atomic charges:   -0.0000000

LOEWDIN ATOMIC CHARGES
----------------------
   0 O :   -0.473766
   1 S :    1.099996
   2 O :   -0.473097
   3 C :   -0.157640
   4 C :   -0.046478
   5 C :   -0.046478
   6 C :   -0.157637
   7 H :    0.046648
   8 H :    0.046337
   9 H :    0.034566
  10 H :    0.034565
  11 H :    0.046647
  12 H :    0.046336

  Mayer bond orders larger than 0.1
B(  0-O ,  1-S ) :   1.7322 B(  1-S ,  2-O ) :   1.7328 B(  1-S ,  3-C ) :   0.8164
B(  1-S ,  6-C ) :   0.8164 B(  3-C ,  4-C ) :   1.0272 B(  3-C ,  7-H ) :   0.9091
B(  3-C ,  8-H ) :   0.9106 B(  4-C ,  5-C ) :   1.9021 B(  4-C ,  9-H ) :   0.9747
B(  5-C ,  6-C ) :   1.0272 B(  5-C , 10-H ) :   0.9747 B(  6-C , 11-H ) :   0.9091
B(  6-C , 12-H ) :   0.9106

FINAL SINGLE POINT ENERGY      -703.703074451080

DIPOLE MOMENT
-------------
                                X             Y             Z
Electronic contribution:     -1.84614       0.00090       4.54972
Nuclear contribution   :      2.47044      -0.00120      -6.09114
                        -----------------------------------------
Total Dipole Moment    :      0.62430      -0.00030      -1.54142
                        -----------------------------------------
Magnitude (a.u.)       :      1.66305
Magnitude (Debye)      :      4.22713

                             ****ORCA TERMINATED NORMALLY****
TOTAL RUN TIME: 0 days 0 hours 0 minutes 6 seconds 382 msec
