                         Program Version 3.0.3 - RELEASE   -
|  1> ! RI PBE def2-SVP def2-SVP/J NBO PAL2
|  2> % maxcore 2000
|  3> % output
|  4>     # printlevel mini
|  5>     print[ P_Basis ] 0
|  6>     print[ P_SCFInfo ] 1
|  7>     print[ P_SCFIterInfo ] 1
|  8>     print[ P_OrbEn ] 0
|  9>     print[ P_Cartesian ] 0
| 10> end
| 11> *xyz 0 1
| 12>  O        1.0472050000     0.0971430000    -0.1486500000
| 13>  S        2.4849050000     0.0840980000    -0.1712280000
| 14>  O        3.1654970000     0.2158210000    -1.4293860000
| 15>  C        3.1039900000    -1.3419340000     0.7364850000
| 16>  C        3.4434080000    -0.8501240000     2.1408900000
| 17>  C        3.5321220000     0.6481760000     2.0972690000
| 18>  C        3.0962280000     1.2431380000     0.9989500000
| 19>  H        3.9870020000    -1.6833700000     0.1973640000
| 20>  H        2.3324970000    -2.1094760000     0.7045780000
| 21>  H        4.3831270000    -1.2835180000     2.4920400000
| 22>  H        2.6761020000    -1.1446180000     2.8641110000
| 23>  H        3.9141300000     1.1955590000     2.9522200000
| 24>  H        3.0432070000     2.3006960000     0.7812750000
| 25> *
| 26>
| 27>                          ****END OF INPUT****
 Total Charge           Charge          ....    0
 Multiplicity           Mult            ....    1
 Number of Electrons    NEL             ....   62
 Basis Dimension        Dim             ....  132

MULLIKEN ATOMIC CHARGES
-----------------------
   0 O :   -0.412677
   1 S :    0.583738
   2 O :   -0.412533
   3 C :   -0.043756
   4 C :    0.034012
   5 C :   -0.062106
   6 C :   -0.020574
   7 H :    0.070581
   8 H :    0.071509
   9 H :    0.048208
  10 H :    0.061943
  11 H :    0.027745
  12 H :    0.053911
Sum of atomic charges:    0.0000000

LOEWDIN ATOMIC CHARGES
----------------------
   0 O :   -0.469675
   1 S :    1.087904
   2 O :   -0.466965
   3 C :   -0.156810
   4 C :   -0.046896
   5 C :   -0.021306
   6 C :   -0.179703
   7 H :    0.041332
   8 H :    0.042147
   9 H :    0.044507
  10 H :    0.049989
  11 H :    0.036286
  12 H :    0.039191

  Mayer bond orders larger than 0.1
B(  0-O ,  1-S ) :   1.7082 B(  1-S ,  2-O ) :   1.7208 B(  1-S ,  3-C ) :   0.8375
B(  1-S ,  6-C ) :   0.8553 B(  3-C ,  4-C ) :   1.0667 B(  3-C ,  7-H ) :   0.9261
B(  3-C ,  8-H ) :   0.9248 B(  4-C ,  5-C ) :   1.0598 B(  4-C ,  9-H ) :   0.9273
B(  4-C , 10-H ) :   0.9122 B(  5-C ,  6-C ) :   1.8193 B(  5-C , 11-H ) :   0.9742
B(  6-C , 12-H ) :   0.9634

FINAL SINGLE POINT ENERGY      -703.700767833390

DIPOLE MOMENT
-------------
                                X             Y             Z
Electronic contribution:     -2.65108       2.28985      -5.28477
Nuclear contribution   :      3.54441      -2.61815       6.92142
                        -----------------------------------------
Total Dipole Moment    :      0.89333      -0.32829       1.63664
                        -----------------------------------------
Magnitude (a.u.)       :      1.89326
Magnitude (Debye)      :      4.81228

                             ****ORCA TERMINATED NORMALLY****
TOTAL RUN TIME: 0 days 0 hours 0 minutes 6 seconds 852 msec
