                         Program Version 3.0.3 - RELEASE   -
|  1> ! RI PBE def2-SVP def2-SVP/J NBO PAL2
|  2> % maxcore 2000
|  3> % output
|  4>     # printlevel mini
|  5>     print[ P_Basis ] 0
|  6>     print[ P_SCFInfo ] 1
|  7>     print[ P_SCFIterInfo ] 1
|  8>     print[ P_OrbEn ] 0
|  9>     print[ P_Cartesian ] 0
| 10> end
| 11> *xyz 0 1
| 12>  O        1.0390260000    -0.0286020000     0.6069270000
| 13>  S        2.3444280000     0.0717950000     0.0106200000
| 14>  O        2.4742650000     0.2542790000    -1.4105010000
| 15>  C        3.3023330000     1.3310910000     0.8758780000
| 16>  C        4.6008200000     0.6447400000     1.2720560000
| 17>  C        4.2319300000    -0.7902850000     1.6554170000
| 18>  C        3.3597560000    -1.3252810000     0.5297040000
| 19>  H        2.7114460000     1.6247910000     1.7444340000
| 20>  H        3.4194340000     2.1783080000     0.2017370000
| 21>  H        5.0927340000     1.1723280000     2.0911640000
| 22>  H        5.2924500000     0.6362210000     0.4247460000
| 23>  H        3.6714870000    -0.7908890000     2.5947060000
| 24>  H        5.1158200000    -1.4138450000     1.8009480000
| 25>  H        2.6882420000    -2.1336020000     0.8154320000
| 26>  H        3.9474500000    -1.6191400000    -0.3409590000
| 27> *
| 28>
| 29>                          ****END OF INPUT****
 Total Charge           Charge          ....    0
 Multiplicity           Mult            ....    1
 Number of Electrons    NEL             ....   64
 Basis Dimension        Dim             ....  142

MULLIKEN ATOMIC CHARGES
-----------------------
   0 O :   -0.417198
   1 S :    0.527739
   2 O :   -0.416871
   3 C :    0.011616
   4 C :   -0.073817
   5 C :   -0.059017
   6 C :    0.015458
   7 H :    0.056827
   8 H :    0.064844
   9 H :    0.042795
  10 H :    0.046294
  11 H :    0.040282
  12 H :    0.041840
  13 H :    0.063759
  14 H :    0.055449
Sum of atomic charges:   -0.0000000

LOEWDIN ATOMIC CHARGES
----------------------
   0 O :   -0.479198
   1 S :    1.091554
   2 O :   -0.479114
   3 C :   -0.159953
   4 C :   -0.053399
   5 C :   -0.051463
   6 C :   -0.159041
   7 H :    0.036364
   8 H :    0.039320
   9 H :    0.036644
  10 H :    0.033777
  11 H :    0.032698
  12 H :    0.036705
  13 H :    0.039151
  14 H :    0.035955

  Mayer bond orders larger than 0.1
B(  0-O ,  1-S ) :   1.7238 B(  1-S ,  2-O ) :   1.7242 B(  1-S ,  3-C ) :   0.8218
B(  1-S ,  6-C ) :   0.8210 B(  3-C ,  4-C ) :   1.0873 B(  3-C ,  7-H ) :   0.9211
B(  3-C ,  8-H ) :   0.9230 B(  4-C ,  5-C ) :   1.0773 B(  4-C ,  9-H ) :   0.9348
B(  4-C , 10-H ) :   0.9373 B(  5-C ,  6-C ) :   1.0864 B(  5-C , 11-H ) :   0.9365
B(  5-C , 12-H ) :   0.9339 B(  6-C , 13-H ) :   0.9234 B(  6-C , 14-H ) :   0.9217

FINAL SINGLE POINT ENERGY      -704.924524375961

DIPOLE MOMENT
-------------
                                X             Y             Z
Electronic contribution:     -6.60894       0.46022      -4.63700
Nuclear contribution   :      8.10652      -0.56589       5.68638
                        -----------------------------------------
Total Dipole Moment    :      1.49757      -0.10566       1.04938
                        -----------------------------------------
Magnitude (a.u.)       :      1.83169
Magnitude (Debye)      :      4.65578

                             ****ORCA TERMINATED NORMALLY****
TOTAL RUN TIME: 0 days 0 hours 0 minutes 6 seconds 933 msec
