                         Program Version 3.0.3 - RELEASE   -
|  1> ! RI PBE def2-SVP def2-SVP/J NBO PAL2
|  2> % maxcore 2000
|  3> % output
|  4>     # printlevel mini
|  5>     print[ P_Basis ] 0
|  6>     print[ P_SCFInfo ] 1
|  7>     print[ P_SCFIterInfo ] 1
|  8>     print[ P_OrbEn ] 0
|  9>     print[ P_Cartesian ] 0
| 10> end
| 11> *xyz 0 1
| 12>  O        0.8963060000    -0.0064960000     0.1050930000
| 13>  S        2.3161820000     0.0317590000     0.2379910000
| 14>  O        2.9285880000    -0.0092650000     1.5258000000
| 15>  C        2.9848580000     1.3717950000    -0.7159190000
| 16>  C        3.6825280000     0.8518290000    -1.7149320000
| 17>  C        3.6431540000    -0.6294700000    -1.6614950000
| 18>  N        2.9861750000    -1.1829920000    -0.7227810000
| 19>  H        2.8018790000     2.4026710000    -0.4521630000
| 20>  H        4.2171580000     1.4003130000    -2.4786390000
| 21>  H        4.1554730000    -1.2467340000    -2.3955560000
| 22> *
| 23>
| 24>                          ****END OF INPUT****
 Total Charge           Charge          ....    0
 Multiplicity           Mult            ....    1
 Number of Electrons    NEL             ....   60
 Basis Dimension        Dim             ....  117

MULLIKEN ATOMIC CHARGES
-----------------------
   0 O :   -0.361914
   1 S :    0.703819
   2 O :   -0.361449
   3 C :    0.016357
   4 C :   -0.032942
   5 C :    0.088831
   6 N :   -0.194210
   7 H :    0.063232
   8 H :    0.030437
   9 H :    0.047840
Sum of atomic charges:   -0.0000000

LOEWDIN ATOMIC CHARGES
----------------------
   0 O :   -0.414667
   1 S :    1.093242
   2 O :   -0.414549
   3 C :   -0.128321
   4 C :   -0.058309
   5 C :    0.028129
   6 N :   -0.225586
   7 H :    0.043892
   8 H :    0.042210
   9 H :    0.033958

  Mayer bond orders larger than 0.1
B(  0-O ,  1-S ) :   1.7724 B(  1-S ,  2-O ) :   1.7735 B(  1-S ,  3-C ) :   0.8271
B(  1-S ,  6-N ) :   0.9242 B(  3-C ,  4-C ) :   1.7607 B(  3-C ,  6-N ) :   0.1267
B(  3-C ,  7-H ) :   0.9674 B(  4-C ,  5-C ) :   1.0157 B(  4-C ,  8-H ) :   0.9867
B(  5-C ,  6-N ) :   1.8221 B(  5-C ,  9-H ) :   0.9636

FINAL SINGLE POINT ENERGY      -718.501796161984

DIPOLE MOMENT
-------------
                                X             Y             Z
Electronic contribution:     -1.96638      -1.34972       2.80865
Nuclear contribution   :      2.96647       2.24798      -4.23908
                        -----------------------------------------
Total Dipole Moment    :      1.00009       0.89826      -1.43043
                        -----------------------------------------
Magnitude (a.u.)       :      1.96295
Magnitude (Debye)      :      4.98942

                             ****ORCA TERMINATED NORMALLY****
TOTAL RUN TIME: 0 days 0 hours 0 minutes 5 seconds 294 msec
