                         Program Version 3.0.3 - RELEASE   -
|  1> ! RI PBE def2-SVP def2-SVP/J NBO PAL2
|  2> % maxcore 2000
|  3> % output
|  4>     # printlevel mini
|  5>     print[ P_Basis ] 0
|  6>     print[ P_SCFInfo ] 1
|  7>     print[ P_SCFIterInfo ] 1
|  8>     print[ P_OrbEn ] 0
|  9>     print[ P_Cartesian ] 0
| 10> end
| 11> *xyz 0 1
| 12>  O        1.0438190000     0.1179150000     0.3531700000
| 13>  S        2.4605720000     0.1215470000     0.1500110000
| 14>  O        3.3181300000     0.2303370000     1.2907280000
| 15>  C        2.9712370000    -1.2302220000    -0.9270270000
| 16>  C        3.4546700000    -0.5761580000    -2.1803350000
| 17>  C        3.3723080000     0.7534980000    -2.1395150000
| 18>  N        2.8652060000     1.2864530000    -0.9711470000
| 19>  H        2.0945710000    -1.8675040000    -1.0644430000
| 20>  H        3.7412940000    -1.7856260000    -0.3865630000
| 21>  H        3.8288080000    -1.1368650000    -3.0224060000
| 22>  H        3.6622720000     1.4368220000    -2.9260570000
| 23>  H        2.7379200000     2.2634040000    -0.7785180000
| 24> *
| 25>
| 26>                          ****END OF INPUT****
 Total Charge           Charge          ....    0
 Multiplicity           Mult            ....    1
 Number of Electrons    NEL             ....   62
 Basis Dimension        Dim             ....  127

MULLIKEN ATOMIC CHARGES
-----------------------
   0 O :   -0.393933
   1 S :    0.700458
   2 O :   -0.393572
   3 C :    0.048352
   4 C :   -0.184542
   5 C :    0.162218
   6 N :   -0.279442
   7 H :    0.079601
   8 H :    0.078473
   9 H :    0.014797
  10 H :    0.023433
  11 H :    0.144157
Sum of atomic charges:   -0.0000000

LOEWDIN ATOMIC CHARGES
----------------------
   0 O :   -0.460464
   1 S :    1.115994
   2 O :   -0.460187
   3 C :   -0.143985
   4 C :   -0.128886
   5 C :    0.005299
   6 N :   -0.164946
   7 H :    0.047014
   8 H :    0.046612
   9 H :    0.032748
  10 H :    0.033908
  11 H :    0.076893

  Mayer bond orders larger than 0.1
B(  0-O ,  1-S ) :   1.7764 B(  1-S ,  2-O ) :   1.7760 B(  1-S ,  3-C ) :   0.8602
B(  1-S ,  6-N ) :   0.9220 B(  3-C ,  4-C ) :   1.0685 B(  3-C ,  7-H ) :   0.9084
B(  3-C ,  8-H ) :   0.9095 B(  4-C ,  5-C ) :   1.7564 B(  4-C ,  6-N ) :   0.1404
B(  4-C ,  9-H ) :   0.9854 B(  5-C ,  6-N ) :   1.0604 B(  5-C , 10-H ) :   0.9705
B(  6-N , 11-H ) :   0.9287

FINAL SINGLE POINT ENERGY      -719.720276939716

DIPOLE MOMENT
-------------
                                X             Y             Z
Electronic contribution:     -1.81193       1.76410       4.18309
Nuclear contribution   :      2.35885      -1.55550      -5.53842
                        -----------------------------------------
Total Dipole Moment    :      0.54693       0.20860      -1.35533
                        -----------------------------------------
Magnitude (a.u.)       :      1.47633
Magnitude (Debye)      :      3.75255

                             ****ORCA TERMINATED NORMALLY****
TOTAL RUN TIME: 0 days 0 hours 0 minutes 6 seconds 307 msec
