                         Program Version 3.0.3 - RELEASE   -
|  1> ! RI PBE def2-SVP def2-SVP/J NBO PAL2
|  2> % maxcore 2000
|  3> % output
|  4>     # printlevel mini
|  5>     print[ P_Basis ] 0
|  6>     print[ P_SCFInfo ] 1
|  7>     print[ P_SCFIterInfo ] 1
|  8>     print[ P_OrbEn ] 0
|  9>     print[ P_Cartesian ] 0
| 10> end
| 11> *xyz 0 1
| 12>  O        0.9589380000    -0.0500090000    -0.0103750000
| 13>  S        2.3802300000     0.0872520000    -0.1295810000
| 14>  O        2.9792640000     0.2455330000    -1.4188490000
| 15>  C        3.0795410000     1.3404500000     0.9303770000
| 16>  C        4.4517660000     0.7535310000     1.2150150000
| 17>  C        4.2373440000    -0.7502210000     1.4661280000
| 18>  N        3.0917960000    -1.1841810000     0.6641490000
| 19>  H        2.4522020000     1.4101490000     1.8214100000
| 20>  H        3.0934160000     2.2909480000     0.4000790000
| 21>  H        4.9314920000     1.2254630000     2.0729490000
| 22>  H        5.0940300000     0.9026080000     0.3454320000
| 23>  H        4.0263380000    -0.9284570000     2.5244040000
| 24>  H        5.1314380000    -1.3173120000     1.1999210000
| 25>  H        2.3894040000    -1.7081450000     1.1659320000
| 26> *
| 27>
| 28>                          ****END OF INPUT****
 Total Charge           Charge          ....    0
 Multiplicity           Mult            ....    1
 Number of Electrons    NEL             ....   64
 Basis Dimension        Dim             ....  137

MULLIKEN ATOMIC CHARGES
-----------------------
   0 O :   -0.400701
   1 S :    0.660650
   2 O :   -0.390593
   3 C :   -0.042891
   4 C :   -0.087978
   5 C :    0.137926
   6 N :   -0.304957
   7 H :    0.053564
   8 H :    0.074215
   9 H :    0.046164
  10 H :    0.057423
  11 H :    0.026453
  12 H :    0.037033
  13 H :    0.133691
Sum of atomic charges:    0.0000000

LOEWDIN ATOMIC CHARGES
----------------------
   0 O :   -0.470329
   1 S :    1.101194
   2 O :   -0.461752
   3 C :   -0.158935
   4 C :   -0.064790
   5 C :    0.015090
   6 N :   -0.225111
   7 H :    0.032199
   8 H :    0.040786
   9 H :    0.038889
  10 H :    0.038464
  11 H :    0.023112
  12 H :    0.028853
  13 H :    0.062329

  Mayer bond orders larger than 0.1
B(  0-O ,  1-S ) :   1.7716 B(  1-S ,  2-O ) :   1.7672 B(  1-S ,  3-C ) :   0.8747
B(  1-S ,  6-N ) :   0.9739 B(  3-C ,  4-C ) :   1.0462 B(  3-C ,  7-H ) :   0.9227
B(  3-C ,  8-H ) :   0.9310 B(  4-C ,  5-C ) :   1.0760 B(  4-C ,  9-H ) :   0.9370
B(  4-C , 10-H ) :   0.9314 B(  5-C ,  6-N ) :   1.0123 B(  5-C , 11-H ) :   0.9479
B(  5-C , 12-H ) :   0.9337 B(  6-N , 13-H ) :   0.9214

FINAL SINGLE POINT ENERGY      -720.937114580072

DIPOLE MOMENT
-------------
                                X             Y             Z
Electronic contribution:     -5.42596      -1.16593      -5.29410
Nuclear contribution   :      6.38719       1.35336       7.01378
                        -----------------------------------------
Total Dipole Moment    :      0.96123       0.18743       1.71968
                        -----------------------------------------
Magnitude (a.u.)       :      1.97898
Magnitude (Debye)      :      5.03018

                             ****ORCA TERMINATED NORMALLY****
TOTAL RUN TIME: 0 days 0 hours 0 minutes 7 seconds 71 msec
