                         Program Version 3.0.3 - RELEASE   -
|  1> ! RI PBE def2-SVP def2-SVP/J NBO PAL2
|  2> % maxcore 2000
|  3> % output
|  4>     # printlevel mini
|  5>     print[ P_Basis ] 0
|  6>     print[ P_SCFInfo ] 1
|  7>     print[ P_SCFIterInfo ] 1
|  8>     print[ P_OrbEn ] 0
|  9>     print[ P_Cartesian ] 0
| 10> end
| 11> *xyz 0 1
| 12>  O        0.9330070000     0.0210730000     0.2186160000
| 13>  S        2.3455150000     0.0753360000     0.0592240000
| 14>  O        3.1995650000     0.3186370000     1.1704970000
| 15>  C        2.9441890000    -1.2976580000    -0.9372820000
| 16>  C        3.3858560000    -0.6371860000    -2.1969990000
| 17>  C        3.2061750000     0.6764250000    -2.1795710000
| 18>  O        2.6619460000     1.2358040000    -1.0569830000
| 19>  H        2.1129600000    -1.9947140000    -1.0619080000
| 20>  H        3.7473700000    -1.7797860000    -0.3761970000
| 21>  H        3.8069580000    -1.1749900000    -3.0327760000
| 22>  H        3.4349480000     1.3978500000    -2.9507210000
| 23> *
| 24>
| 25>                          ****END OF INPUT****
 Total Charge           Charge          ....    0
 Multiplicity           Mult            ....    1
 Number of Electrons    NEL             ....   62
 Basis Dimension        Dim             ....  122

MULLIKEN ATOMIC CHARGES
-----------------------
   0 O :   -0.366720
   1 S :    0.752303
   2 O :   -0.366888
   3 C :    0.051349
   4 C :   -0.177068
   5 C :    0.194930
   6 O :   -0.334876
   7 H :    0.087859
   8 H :    0.085917
   9 H :    0.030171
  10 H :    0.043023
Sum of atomic charges:   -0.0000000

LOEWDIN ATOMIC CHARGES
----------------------
   0 O :   -0.428801
   1 S :    1.122967
   2 O :   -0.428936
   3 C :   -0.142990
   4 C :   -0.118467
   5 C :    0.039427
   6 O :   -0.219765
   7 H :    0.050248
   8 H :    0.049857
   9 H :    0.040478
  10 H :    0.035983

  Mayer bond orders larger than 0.1
B(  0-O ,  1-S ) :   1.8160 B(  1-S ,  2-O ) :   1.8156 B(  1-S ,  3-C ) :   0.8712
B(  1-S ,  6-O ) :   0.8726 B(  3-C ,  4-C ) :   1.0639 B(  3-C ,  7-H ) :   0.9082
B(  3-C ,  8-H ) :   0.9082 B(  4-C ,  5-C ) :   1.7842 B(  4-C ,  6-O ) :   0.1115
B(  4-C ,  9-H ) :   0.9786 B(  5-C ,  6-O ) :   1.0312 B(  5-C , 10-H ) :   0.9812

FINAL SINGLE POINT ENERGY      -739.561601412092

DIPOLE MOMENT
-------------
                                X             Y             Z
Electronic contribution:     -1.88181       2.80637       3.60455
Nuclear contribution   :      2.54862      -3.59098      -4.94903
                        -----------------------------------------
Total Dipole Moment    :      0.66682      -0.78460      -1.34448
                        -----------------------------------------
Magnitude (a.u.)       :      1.69348
Magnitude (Debye)      :      4.30448

                             ****ORCA TERMINATED NORMALLY****
TOTAL RUN TIME: 0 days 0 hours 0 minutes 5 seconds 779 msec
