                         Program Version 3.0.3 - RELEASE   -
|  1> ! RI PBE def2-SVP def2-SVP/J NBO PAL2
|  2> % maxcore 2000
|  3> % output
|  4>     # printlevel mini
|  5>     print[ P_Basis ] 0
|  6>     print[ P_SCFInfo ] 1
|  7>     print[ P_SCFIterInfo ] 1
|  8>     print[ P_OrbEn ] 0
|  9>     print[ P_Cartesian ] 0
| 10> end
| 11> *xyz 0 1
| 12>  O        1.2638710000    -0.4894530000     0.6205130000
| 13>  S        2.3796560000    -0.0626810000    -0.1631470000
| 14>  O        2.2346120000     0.1724880000    -1.5593190000
| 15>  C        3.2016270000     1.2844310000     0.7019930000
| 16>  C        4.4602000000     0.6575040000     1.2982140000
| 17>  C        4.2328920000    -0.8519140000     1.2602720000
| 18>  O        3.5764630000    -1.1122650000     0.0156910000
| 19>  H        2.4956180000     1.6414410000     1.4501020000
| 20>  H        3.4040280000     2.0719170000    -0.0212110000
| 21>  H        4.6520330000     1.0074000000     2.3131880000
| 22>  H        5.3257710000     0.9058260000     0.6824180000
| 23>  H        3.6019680000    -1.1962580000     2.0853610000
| 24>  H        5.1587610000    -1.4238270000     1.2481160000
| 25> *
| 26>
| 27>                          ****END OF INPUT****
 Total Charge           Charge          ....    0
 Multiplicity           Mult            ....    1
 Number of Electrons    NEL             ....   64
 Basis Dimension        Dim             ....  132

MULLIKEN ATOMIC CHARGES
-----------------------
   0 O :   -0.393259
   1 S :    0.739710
   2 O :   -0.370185
   3 C :   -0.028067
   4 C :   -0.062254
   5 C :    0.180598
   6 O :   -0.387372
   7 H :    0.072814
   8 H :    0.072611
   9 H :    0.039940
  10 H :    0.044553
  11 H :    0.042039
  12 H :    0.048872
Sum of atomic charges:    0.0000000

LOEWDIN ATOMIC CHARGES
----------------------
   0 O :   -0.452941
   1 S :    1.105481
   2 O :   -0.438779
   3 C :   -0.156674
   4 C :   -0.061269
   5 C :    0.057126
   6 O :   -0.269433
   7 H :    0.042264
   8 H :    0.042437
   9 H :    0.040435
  10 H :    0.038263
  11 H :    0.018201
  12 H :    0.034889

  Mayer bond orders larger than 0.1
B(  0-O ,  1-S ) :   1.7624 B(  1-S ,  2-O ) :   1.8226 B(  1-S ,  3-C ) :   0.8869
B(  1-S ,  6-O ) :   0.9596 B(  3-C ,  4-C ) :   1.1244 B(  3-C ,  7-H ) :   0.9202
B(  3-C ,  8-H ) :   0.9284 B(  4-C ,  5-C ) :   1.1008 B(  4-C ,  9-H ) :   0.9267
B(  4-C , 10-H ) :   0.9277 B(  5-C ,  6-O ) :   0.9248 B(  5-C , 11-H ) :   0.9370
B(  5-C , 12-H ) :   0.9464

FINAL SINGLE POINT ENERGY      -740.778366171447

DIPOLE MOMENT
-------------
                                X             Y             Z
Electronic contribution:     -5.20909      -2.48029      -4.79199
Nuclear contribution   :      6.64371       3.20581       6.02246
                        -----------------------------------------
Total Dipole Moment    :      1.43462       0.72553       1.23048
                        -----------------------------------------
Magnitude (a.u.)       :      2.02450
Magnitude (Debye)      :      5.14586

                             ****ORCA TERMINATED NORMALLY****
TOTAL RUN TIME: 0 days 0 hours 0 minutes 6 seconds 705 msec
