                         Program Version 3.0.3 - RELEASE   -
|  1> ! RI PBE def2-SVP def2-SVP/J NBO PAL2
|  2> % maxcore 2000
|  3> % output
|  4>     # printlevel mini
|  5>     print[ P_Basis ] 0
|  6>     print[ P_SCFInfo ] 1
|  7>     print[ P_SCFIterInfo ] 1
|  8>     print[ P_OrbEn ] 0
|  9>     print[ P_Cartesian ] 0
| 10> end
| 11> *xyz 0 1
| 12>  O        0.9493430000    -0.0119530000     0.2646400000
| 13>  S        2.3772820000     0.0223580000     0.3906590000
| 14>  O        2.9843860000    -0.0107330000     1.6892730000
| 15>  C        3.0783160000     1.2902390000    -0.6118320000
| 16>  C        3.7645540000     0.7193270000    -1.5916130000
| 17>  N        3.7960480000    -0.7136640000    -1.6353750000
| 18>  C        3.1325060000    -1.2129850000    -0.6870970000
| 19>  H        2.9270870000     2.3362840000    -0.3967020000
| 20>  H        4.3092150000     1.2359430000    -2.3700880000
| 21>  H        3.0072520000    -2.2758270000    -0.5072650000
| 22> *
| 23>
| 24>                          ****END OF INPUT****
 Total Charge           Charge          ....    0
 Multiplicity           Mult            ....    1
 Number of Electrons    NEL             ....   60
 Basis Dimension        Dim             ....  117

MULLIKEN ATOMIC CHARGES
-----------------------
   0 O :   -0.378281
   1 S :    0.584416
   2 O :   -0.377716
   3 C :   -0.014253
   4 C :    0.060887
   5 N :   -0.117222
   6 C :    0.064681
   7 H :    0.065316
   8 H :    0.036966
   9 H :    0.075207
Sum of atomic charges:   -0.0000000

LOEWDIN ATOMIC CHARGES
----------------------
   0 O :   -0.425137
   1 S :    1.055401
   2 O :   -0.425010
   3 C :   -0.180462
   4 C :    0.012206
   5 N :   -0.059934
   6 C :   -0.092213
   7 H :    0.045659
   8 H :    0.035531
   9 H :    0.033959

  Mayer bond orders larger than 0.1
B(  0-O ,  1-S ) :   1.7107 B(  1-S ,  2-O ) :   1.7116 B(  1-S ,  3-C ) :   0.8170
B(  1-S ,  6-C ) :   0.7463 B(  3-C ,  4-C ) :   1.7664 B(  3-C ,  7-H ) :   0.9629
B(  4-C ,  5-N ) :   1.1177 B(  4-C ,  8-H ) :   0.9899 B(  5-N ,  6-C ) :   1.8923
B(  6-C ,  9-H ) :   0.9450

FINAL SINGLE POINT ENERGY      -718.489919463003

DIPOLE MOMENT
-------------
                                X             Y             Z
Electronic contribution:     -1.36340      -0.81886       1.94864
Nuclear contribution   :      1.85462       1.18167      -2.65027
                        -----------------------------------------
Total Dipole Moment    :      0.49122       0.36281      -0.70163
                        -----------------------------------------
Magnitude (a.u.)       :      0.93017
Magnitude (Debye)      :      2.36430

                             ****ORCA TERMINATED NORMALLY****
TOTAL RUN TIME: 0 days 0 hours 0 minutes 5 seconds 169 msec
