                         Program Version 3.0.3 - RELEASE   -
|  1> ! RI PBE def2-SVP def2-SVP/J NBO PAL2
|  2> % maxcore 2000
|  3> % output
|  4>     # printlevel mini
|  5>     print[ P_Basis ] 0
|  6>     print[ P_SCFInfo ] 1
|  7>     print[ P_SCFIterInfo ] 1
|  8>     print[ P_OrbEn ] 0
|  9>     print[ P_Cartesian ] 0
| 10> end
| 11> *xyz 0 1
| 12>  O        0.9458790000    -0.0596530000     0.7235160000
| 13>  S        2.1602540000     0.0276340000    -0.0477640000
| 14>  O        2.1027990000     0.1388850000    -1.4802990000
| 15>  C        3.1962920000     1.3189730000     0.6771330000
| 16>  C        4.3587120000     0.5644720000     1.3357780000
| 17>  N        3.9599820000    -0.8116120000     1.6318410000
| 18>  C        3.2716970000    -1.3129030000     0.4808410000
| 19>  H        2.5705790000     1.8430130000     1.3988730000
| 20>  H        3.4991920000     1.9971170000    -0.1189870000
| 21>  H        4.6923860000     1.0558380000     2.2495290000
| 22>  H        5.2113090000     0.5254680000     0.6520570000
| 23>  H        3.3506510000    -0.8393730000     2.4413510000
| 24>  H        2.6697170000    -2.1963440000     0.6868590000
| 25>  H        3.9626520000    -1.5035960000    -0.3448280000
| 26> *
| 27>
| 28>                          ****END OF INPUT****
 Total Charge           Charge          ....    0
 Multiplicity           Mult            ....    1
 Number of Electrons    NEL             ....   64
 Basis Dimension        Dim             ....  137

MULLIKEN ATOMIC CHARGES
-----------------------
   0 O :   -0.425163
   1 S :    0.507991
   2 O :   -0.409980
   3 C :   -0.013738
   4 C :    0.041287
   5 N :   -0.240539
   6 C :    0.107263
   7 H :    0.063670
   8 H :    0.064835
   9 H :    0.038688
  10 H :    0.036190
  11 H :    0.115578
  12 H :    0.066543
  13 H :    0.047375
Sum of atomic charges:    0.0000000

LOEWDIN ATOMIC CHARGES
----------------------
   0 O :   -0.484986
   1 S :    1.065372
   2 O :   -0.475035
   3 C :   -0.182402
   4 C :    0.004520
   5 N :   -0.086395
   6 C :   -0.106977
   7 H :    0.037496
   8 H :    0.038931
   9 H :    0.034068
  10 H :    0.030661
  11 H :    0.062363
  12 H :    0.036111
  13 H :    0.026273

  Mayer bond orders larger than 0.1
B(  0-O ,  1-S ) :   1.6860 B(  1-S ,  2-O ) :   1.7325 B(  1-S ,  3-C ) :   0.8134
B(  1-S ,  6-C ) :   0.7743 B(  3-C ,  4-C ) :   1.0904 B(  3-C ,  7-H ) :   0.9181
B(  3-C ,  8-H ) :   0.9197 B(  4-C ,  5-N ) :   1.0679 B(  4-C ,  9-H ) :   0.9449
B(  4-C , 10-H ) :   0.9268 B(  5-N ,  6-C ) :   1.0867 B(  5-N , 11-H ) :   0.9425
B(  6-C , 12-H ) :   0.9337 B(  6-C , 13-H ) :   0.9149

FINAL SINGLE POINT ENERGY      -720.933054340744

DIPOLE MOMENT
-------------
                                X             Y             Z
Electronic contribution:     -5.25666      -0.72216      -3.09711
Nuclear contribution   :      6.46756       0.90339       4.02728
                        -----------------------------------------
Total Dipole Moment    :      1.21090       0.18123       0.93016
                        -----------------------------------------
Magnitude (a.u.)       :      1.53764
Magnitude (Debye)      :      3.90836

                             ****ORCA TERMINATED NORMALLY****
TOTAL RUN TIME: 0 days 0 hours 0 minutes 6 seconds 597 msec
