                         Program Version 3.0.3 - RELEASE   -
|  1> ! RI PBE def2-SVP def2-SVP/J NBO PAL2
|  2> % maxcore 2000
|  3> % output
|  4>     # printlevel mini
|  5>     print[ P_Basis ] 0
|  6>     print[ P_SCFInfo ] 1
|  7>     print[ P_SCFIterInfo ] 1
|  8>     print[ P_OrbEn ] 0
|  9>     print[ P_Cartesian ] 0
| 10> end
| 11> *xyz 0 1
| 12>  O        0.8133600000     0.0182460000     0.4162700000
| 13>  S        2.1761820000     0.0628070000    -0.0337350000
| 14>  O        2.4769530000     0.1431350000    -1.4373680000
| 15>  C        3.0851190000     1.3243210000     0.8732390000
| 16>  C        4.2850500000     0.5637260000     1.4105200000
| 17>  O        3.8207790000    -0.7250060000     1.7922480000
| 18>  C        3.1534100000    -1.2917390000     0.7114080000
| 19>  H        2.4377840000     1.6817060000     1.6730480000
| 20>  H        3.3337200000     2.1268260000     0.1807740000
| 21>  H        4.7089600000     1.0287040000     2.2993410000
| 22>  H        5.0681450000     0.4732100000     0.6465420000
| 23>  H        2.4813140000    -2.0765120000     1.0546970000
| 24>  H        3.8331330000    -1.6529440000    -0.0699950000
| 25> *
| 26>
| 27>                          ****END OF INPUT****
 Total Charge           Charge          ....    0
 Multiplicity           Mult            ....    1
 Number of Electrons    NEL             ....   64
 Basis Dimension        Dim             ....  132

MULLIKEN ATOMIC CHARGES
-----------------------
   0 O :   -0.405644
   1 S :    0.494744
   2 O :   -0.409908
   3 C :   -0.010147
   4 C :    0.121810
   5 O :   -0.337157
   6 C :    0.216614
   7 H :    0.071244
   8 H :    0.073464
   9 H :    0.049391
  10 H :    0.032511
  11 H :    0.065772
  12 H :    0.037307
Sum of atomic charges:   -0.0000000

LOEWDIN ATOMIC CHARGES
----------------------
   0 O :   -0.465565
   1 S :    1.066735
   2 O :   -0.472940
   3 C :   -0.176476
   4 C :    0.056250
   5 O :   -0.136181
   6 C :   -0.057401
   7 H :    0.041390
   8 H :    0.044554
   9 H :    0.035095
  10 H :    0.018223
  11 H :    0.032804
  12 H :    0.013511

  Mayer bond orders larger than 0.1
B(  0-O ,  1-S ) :   1.7289 B(  1-S ,  2-O ) :   1.7248 B(  1-S ,  3-C ) :   0.8065
B(  1-S ,  6-C ) :   0.7671 B(  3-C ,  4-C ) :   1.1048 B(  3-C ,  7-H ) :   0.9163
B(  3-C ,  8-H ) :   0.9187 B(  4-C ,  5-O ) :   0.9729 B(  4-C ,  9-H ) :   0.9467
B(  4-C , 10-H ) :   0.9183 B(  5-O ,  6-C ) :   1.0577 B(  6-C , 11-H ) :   0.9343
B(  6-C , 12-H ) :   0.9136

FINAL SINGLE POINT ENERGY      -740.763825188455

DIPOLE MOMENT
-------------
                                X             Y             Z
Electronic contribution:     -4.02732      -1.10554      -2.27288
Nuclear contribution   :      5.21168       1.39212       2.98699
                        -----------------------------------------
Total Dipole Moment    :      1.18437       0.28658       0.71410
                        -----------------------------------------
Magnitude (a.u.)       :      1.41237
Magnitude (Debye)      :      3.58996

                             ****ORCA TERMINATED NORMALLY****
TOTAL RUN TIME: 0 days 0 hours 0 minutes 6 seconds 710 msec
