                         Program Version 3.0.3 - RELEASE   -
|  1> ! RI PBE def2-SVP def2-SVP/J NBO PAL2
|  2> % maxcore 2000
|  3> % output
|  4>     # printlevel mini
|  5>     print[ P_Basis ] 0
|  6>     print[ P_SCFInfo ] 1
|  7>     print[ P_SCFIterInfo ] 1
|  8>     print[ P_OrbEn ] 0
|  9>     print[ P_Cartesian ] 0
| 10> end
| 11> *xyz 0 1
| 12>  O        1.0743650000     0.0515480000    -0.2381750000
| 13>  S        2.5006340000    -0.0317050000    -0.2505840000
| 14>  O        3.1878320000    -0.0531210000    -1.5077710000
| 15>  N        3.0282820000    -1.3333420000     0.6505720000
| 16>  C        3.4369440000    -0.9121270000     1.9841360000
| 17>  C        3.5322980000     0.5864490000     1.9866550000
| 18>  C        3.1185900000     1.1676580000     0.8739670000
| 19>  H        3.7678560000    -1.7877240000     0.1314370000
| 20>  H        4.3939650000    -1.3719770000     2.2435740000
| 21>  H        2.7082140000    -1.2383720000     2.7351620000
| 22>  H        3.8715170000     1.1204190000     2.8665980000
| 23>  H        3.0418840000     2.2201950000     0.6434300000
| 24> *
| 25>
| 26>                          ****END OF INPUT****
 Total Charge           Charge          ....    0
 Multiplicity           Mult            ....    1
 Number of Electrons    NEL             ....   62
 Basis Dimension        Dim             ....  127

MULLIKEN ATOMIC CHARGES
-----------------------
   0 O :   -0.382056
   1 S :    0.697498
   2 O :   -0.404776
   3 N :   -0.308907
   4 C :    0.193315
   5 C :   -0.114928
   6 C :   -0.017102
   7 H :    0.140220
   8 H :    0.047689
   9 H :    0.062516
  10 H :    0.030810
  11 H :    0.055720
Sum of atomic charges:    0.0000000

LOEWDIN ATOMIC CHARGES
----------------------
   0 O :   -0.445489
   1 S :    1.098381
   2 O :   -0.464240
   3 N :   -0.218680
   4 C :    0.014319
   5 C :   -0.035459
   6 C :   -0.176653
   7 H :    0.065610
   8 H :    0.040673
   9 H :    0.042957
  10 H :    0.038230
  11 H :    0.040352

  Mayer bond orders larger than 0.1
B(  0-O ,  1-S ) :   1.7670 B(  1-S ,  2-O ) :   1.7413 B(  1-S ,  3-N ) :   0.9735
B(  1-S ,  6-C ) :   0.8793 B(  3-N ,  4-C ) :   1.0169 B(  3-N ,  7-H ) :   0.9231
B(  4-C ,  5-C ) :   1.0203 B(  4-C ,  8-H ) :   0.9319 B(  4-C ,  9-H ) :   0.9120
B(  5-C ,  6-C ) :   1.8327 B(  5-C , 10-H ) :   0.9758 B(  6-C , 11-H ) :   0.9688

FINAL SINGLE POINT ENERGY      -719.713421348153

DIPOLE MOMENT
-------------
                                X             Y             Z
Electronic contribution:     -2.44508       0.59914      -4.90350
Nuclear contribution   :      3.68623      -0.57784       6.49430
                        -----------------------------------------
Total Dipole Moment    :      1.24115       0.02130       1.59080
                        -----------------------------------------
Magnitude (a.u.)       :      2.01781
Magnitude (Debye)      :      5.12886

                             ****ORCA TERMINATED NORMALLY****
TOTAL RUN TIME: 0 days 0 hours 0 minutes 6 seconds 300 msec
