                         Program Version 3.0.3 - RELEASE   -
|  1> ! RI PBE def2-SVP def2-SVP/J NBO PAL2
|  2> % maxcore 2000
|  3> % output
|  4>     # printlevel mini
|  5>     print[ P_Basis ] 0
|  6>     print[ P_SCFInfo ] 1
|  7>     print[ P_SCFIterInfo ] 1
|  8>     print[ P_OrbEn ] 0
|  9>     print[ P_Cartesian ] 0
| 10> end
| 11> *xyz 0 1
| 12>  O        1.0073760000     0.1896650000    -0.3077600000
| 13>  S        2.4210590000     0.0800350000    -0.1662260000
| 14>  O        3.2314510000    -0.0241860000    -1.3336770000
| 15>  O        2.7505280000    -1.1569790000     0.8057520000
| 16>  C        3.3525880000    -0.7788320000     2.0334970000
| 17>  C        3.4973510000     0.7060990000     2.0375530000
| 18>  C        3.0467430000     1.2829680000     0.9396650000
| 19>  H        4.3238510000    -1.2775310000     2.1144790000
| 20>  H        2.7161880000    -1.1227980000     2.8552670000
| 21>  H        3.9362610000     1.2228960000     2.8818370000
| 22>  H        3.0224930000     2.3279630000     0.6690130000
| 23> *
| 24>
| 25>                          ****END OF INPUT****
 Total Charge           Charge          ....    0
 Multiplicity           Mult            ....    1
 Number of Electrons    NEL             ....   62
 Basis Dimension        Dim             ....  122

MULLIKEN ATOMIC CHARGES
-----------------------
   0 O :   -0.374867
   1 S :    0.793513
   2 O :   -0.374174
   3 O :   -0.400237
   4 C :    0.286345
   5 C :   -0.131973
   6 C :   -0.021411
   7 H :    0.060336
   8 H :    0.060460
   9 H :    0.039685
  10 H :    0.062323
Sum of atomic charges:   -0.0000000

LOEWDIN ATOMIC CHARGES
----------------------
   0 O :   -0.434348
   1 S :    1.101925
   2 O :   -0.434232
   3 O :   -0.267318
   4 C :    0.072465
   5 C :   -0.036816
   6 C :   -0.171120
   7 H :    0.041124
   8 H :    0.041078
   9 H :    0.043286
  10 H :    0.043957

  Mayer bond orders larger than 0.1
B(  0-O ,  1-S ) :   1.7884 B(  1-S ,  2-O ) :   1.7886 B(  1-S ,  3-O ) :   0.9434
B(  1-S ,  6-C ) :   0.9090 B(  3-O ,  4-C ) :   0.9510 B(  4-C ,  5-C ) :   1.0282
B(  4-C ,  7-H ) :   0.9223 B(  4-C ,  8-H ) :   0.9226 B(  5-C ,  6-C ) :   1.8365
B(  5-C ,  9-H ) :   0.9744 B(  6-C , 10-H ) :   0.9684

FINAL SINGLE POINT ENERGY      -739.553973710958

DIPOLE MOMENT
-------------
                                X             Y             Z
Electronic contribution:     -2.15670      -0.49060      -4.57599
Nuclear contribution   :      3.05253       0.98717       6.41552
                        -----------------------------------------
Total Dipole Moment    :      0.89582       0.49657       1.83953
                        -----------------------------------------
Magnitude (a.u.)       :      2.10546
Magnitude (Debye)      :      5.35165

                             ****ORCA TERMINATED NORMALLY****
TOTAL RUN TIME: 0 days 0 hours 0 minutes 6 seconds 124 msec
