                         Program Version 3.0.3 - RELEASE   -
|  1> ! RI PBE def2-SVP def2-SVP/J NBO PAL2
|  2> % maxcore 2000
|  3> % output
|  4>     # printlevel mini
|  5>     print[ P_Basis ] 0
|  6>     print[ P_SCFInfo ] 1
|  7>     print[ P_SCFIterInfo ] 1
|  8>     print[ P_OrbEn ] 0
|  9>     print[ P_Cartesian ] 0
| 10> end
| 11> *xyz 0 1
| 12>  O        1.0612740000     0.0394680000     0.1278340000
| 13>  S        2.4769410000    -0.0310270000    -0.0028430000
| 14>  O        3.0889420000    -0.6407580000    -1.1341430000
| 15>  C        3.1070690000     1.5484430000     0.1582230000
| 16>  C        3.5258220000     2.6710970000     0.2259960000
| 17>  C        3.1067700000    -0.7652280000     1.4049800000
| 18>  C        3.5252770000    -1.3260740000     2.3799700000
| 19>  H        3.8969200000     3.6687870000     0.2869320000
| 20>  H        3.8964840000    -1.8241080000     3.2465620000
| 21> *
| 22>
| 23>                          ****END OF INPUT****
 Total Charge           Charge          ....    0
 Multiplicity           Mult            ....    1
 Number of Electrons    NEL             ....   58
 Basis Dimension        Dim             ....  112

MULLIKEN ATOMIC CHARGES
-----------------------
   0 O :   -0.345596
   1 S :    0.668027
   2 O :   -0.344939
   3 C :    0.430091
   4 C :   -0.451422
   5 C :    0.428968
   6 C :   -0.450050
   7 H :    0.032644
   8 H :    0.032277
Sum of atomic charges:   -0.0000000

LOEWDIN ATOMIC CHARGES
----------------------
   0 O :   -0.400527
   1 S :    1.076085
   2 O :   -0.400301
   3 C :   -0.201649
   4 C :    0.013799
   5 C :   -0.201684
   6 C :    0.013948
   7 H :    0.050178
   8 H :    0.050150

  Mayer bond orders larger than 0.1
B(  0-O ,  1-S ) :   1.8027 B(  1-S ,  2-O ) :   1.8030 B(  1-S ,  3-C ) :   0.8601
B(  1-S ,  5-C ) :   0.8605 B(  3-C ,  4-C ) :   2.3848 B(  3-C ,  7-H ) :  -0.1114
B(  4-C ,  7-H ) :   1.1011 B(  5-C ,  6-C ) :   2.3856 B(  5-C ,  8-H ) :  -0.1111
B(  6-C ,  8-H ) :   1.1009

FINAL SINGLE POINT ENERGY      -701.137133069867

DIPOLE MOMENT
-------------
                                X             Y             Z
Electronic contribution:     -1.25350      -0.84168      -1.56246
Nuclear contribution   :      2.15327       1.44620       2.68433
                        -----------------------------------------
Total Dipole Moment    :      0.89977       0.60453       1.12187
                        -----------------------------------------
Magnitude (a.u.)       :      1.56001
Magnitude (Debye)      :      3.96524

                             ****ORCA TERMINATED NORMALLY****
TOTAL RUN TIME: 0 days 0 hours 0 minutes 5 seconds 260 msec
