                         Program Version 3.0.3 - RELEASE   -
|  1> ! RI PBE def2-SVP def2-SVP/J NBO PAL2
|  2> % maxcore 2000
|  3> % output
|  4>     # printlevel mini
|  5>     print[ P_Basis ] 0
|  6>     print[ P_SCFInfo ] 1
|  7>     print[ P_SCFIterInfo ] 1
|  8>     print[ P_OrbEn ] 0
|  9>     print[ P_Cartesian ] 0
| 10> end
| 11> *xyz 0 1
| 12>  O        1.0379460000     0.0155800000    -0.0823600000
| 13>  S        2.4464260000     0.1858070000    -0.0925890000
| 14>  O        3.0709240000     1.3794400000    -0.5373330000
| 15>  C        3.0720090000    -0.2397540000     1.4272020000
| 16>  C        3.4979510000    -0.5115380000     2.5154360000
| 17>  C        3.1067630000    -1.1179760000    -1.0492030000
| 18>  N        3.5266060000    -1.9640410000    -1.7062580000
| 19>  H        3.8771760000    -0.7535180000     3.4830150000
| 20> *
| 21>
| 22>                          ****END OF INPUT****
 Total Charge           Charge          ....    0
 Multiplicity           Mult            ....    1
 Number of Electrons    NEL             ....   58
 Basis Dimension        Dim             ....  107

MULLIKEN ATOMIC CHARGES
-----------------------
   0 O :   -0.322129
   1 S :    0.641354
   2 O :   -0.321448
   3 C :    0.432664
   4 C :   -0.419742
   5 C :   -0.140205
   6 N :    0.083808
   7 H :    0.045698
Sum of atomic charges:   -0.0000000

LOEWDIN ATOMIC CHARGES
----------------------
   0 O :   -0.376283
   1 S :    1.061926
   2 O :   -0.376032
   3 C :   -0.206342
   4 C :    0.047451
   5 C :   -0.215161
   6 N :    0.007651
   7 H :    0.056789

  Mayer bond orders larger than 0.1
B(  0-O ,  1-S ) :   1.8284 B(  1-S ,  2-O ) :   1.8282 B(  1-S ,  3-C ) :   0.8723
B(  1-S ,  5-C ) :   0.8480 B(  3-C ,  4-C ) :   2.3635 B(  3-C ,  7-H ) :  -0.1083
B(  4-C ,  7-H ) :   1.0971 B(  5-C ,  6-N ) :   3.0300

FINAL SINGLE POINT ENERGY      -717.204221452093

DIPOLE MOMENT
-------------
                                X             Y             Z
Electronic contribution:     -0.65715       0.38866      -1.77119
Nuclear contribution   :      1.07327      -0.51835       3.23965
                        -----------------------------------------
Total Dipole Moment    :      0.41612      -0.12969       1.46846
                        -----------------------------------------
Magnitude (a.u.)       :      1.53178
Magnitude (Debye)      :      3.89347

                             ****ORCA TERMINATED NORMALLY****
TOTAL RUN TIME: 0 days 0 hours 0 minutes 5 seconds 408 msec
