                         Program Version 3.0.3 - RELEASE   -
|  1> ! RI PBE def2-SVP def2-SVP/J NBO PAL2
|  2> % maxcore 2000
|  3> % output
|  4>     # printlevel mini
|  5>     print[ P_Basis ] 0
|  6>     print[ P_SCFInfo ] 1
|  7>     print[ P_SCFIterInfo ] 1
|  8>     print[ P_OrbEn ] 0
|  9>     print[ P_Cartesian ] 0
| 10> end
| 11> *xyz 0 1
| 12>  O        3.5138760000     1.0671880000     0.4333570000
| 13>  S        2.4149910000    -0.0388610000     0.0962660000
| 14>  O        1.4442830000     0.0576030000     1.1296910000
| 15>  O        2.0641700000     0.1092410000    -1.2840350000
| 16>  C        3.3076900000    -1.5280790000     0.2930390000
| 17>  C        2.8509890000    -2.7175060000    -0.4955560000
| 18>  C        4.1380760000    -2.0463620000    -0.8400060000
| 19>  H        3.9234720000     1.3508450000    -0.3943810000
| 20>  H        3.6412000000    -1.6652550000     1.3139590000
| 21>  H        2.0210600000    -2.5711080000    -1.1746320000
| 22>  H        2.8721690000    -3.6713420000     0.0148950000
| 23>  H        4.1552870000    -1.4625150000    -1.7515860000
| 24>  H        5.0707460000    -2.5280600000    -0.5759190000
| 25> *
| 26>
| 27>                          ****END OF INPUT****
 Total Charge           Charge          ....    0
 Multiplicity           Mult            ....    1
 Number of Electrons    NEL             ....   64
 Basis Dimension        Dim             ....  132

MULLIKEN ATOMIC CHARGES
-----------------------
   0 O :   -0.282065
   1 S :    0.786185
   2 O :   -0.370948
   3 O :   -0.403232
   4 C :   -0.202885
   5 C :   -0.008986
   6 C :   -0.007862
   7 H :    0.188838
   8 H :    0.069333
   9 H :    0.068767
  10 H :    0.057004
  11 H :    0.054157
  12 H :    0.051694
Sum of atomic charges:    0.0000000

LOEWDIN ATOMIC CHARGES
----------------------
   0 O :   -0.216132
   1 S :    1.110350
   2 O :   -0.435192
   3 O :   -0.463905
   4 C :   -0.186735
   5 C :   -0.029741
   6 C :   -0.039687
   7 H :    0.077679
   8 H :    0.038912
   9 H :    0.038343
  10 H :    0.037719
  11 H :    0.032150
  12 H :    0.036239

  Mayer bond orders larger than 0.1
B(  0-O ,  1-S ) :   0.9852 B(  0-O ,  7-H ) :   0.9454 B(  1-S ,  2-O ) :   1.8256
B(  1-S ,  3-O ) :   1.7501 B(  1-S ,  4-C ) :   0.9032 B(  4-C ,  5-C ) :   0.9579
B(  4-C ,  6-C ) :   0.9426 B(  4-C ,  8-H ) :   0.9257 B(  5-C ,  6-C ) :   1.0412
B(  5-C ,  9-H ) :   0.9425 B(  5-C , 10-H ) :   0.9479 B(  6-C , 11-H ) :   0.9436
B(  6-C , 12-H ) :   0.9423

FINAL SINGLE POINT ENERGY      -740.759333980453

DIPOLE MOMENT
-------------
                                X             Y             Z
Electronic contribution:     -3.50812       6.05846       1.72511
Nuclear contribution   :      4.88146      -6.74697      -2.05822
                        -----------------------------------------
Total Dipole Moment    :      1.37334      -0.68851      -0.33311
                        -----------------------------------------
Magnitude (a.u.)       :      1.57197
Magnitude (Debye)      :      3.99562

                             ****ORCA TERMINATED NORMALLY****
TOTAL RUN TIME: 0 days 0 hours 0 minutes 6 seconds 629 msec
