                         Program Version 3.0.3 - RELEASE   -
|  1> ! RI PBE def2-SVP def2-SVP/J NBO PAL2
|  2> % maxcore 2000
|  3> % output
|  4>     # printlevel mini
|  5>     print[ P_Basis ] 0
|  6>     print[ P_SCFInfo ] 1
|  7>     print[ P_SCFIterInfo ] 1
|  8>     print[ P_OrbEn ] 0
|  9>     print[ P_Cartesian ] 0
| 10> end
| 11> *xyz 0 1
| 12>  O        1.1925920000    -0.0917620000     0.2678770000
| 13>  S        2.7547900000     0.0819210000    -0.0201060000
| 14>  O        2.9029810000     0.2704380000    -1.4297850000
| 15>  O        3.2521930000     1.0338680000     0.9131340000
| 16>  C        3.3533050000    -1.5307670000     0.4498510000
| 17>  C        4.8433730000    -1.5673370000     0.4423820000
| 18>  C        5.5515880000    -2.3170360000    -0.3881650000
| 19>  H        0.7356690000    -0.0947540000    -0.5837060000
| 20>  H        2.9181420000    -2.2457860000    -0.2498710000
| 21>  H        2.9444520000    -1.7025470000     1.4493100000
| 22>  H        5.3383730000    -0.9299090000     1.1684660000
| 23>  H        5.0774850000    -2.9530600000    -1.1285800000
| 24>  H        6.6343550000    -2.3201690000    -0.3559150000
| 25> *
| 26>
| 27>                          ****END OF INPUT****
 Total Charge           Charge          ....    0
 Multiplicity           Mult            ....    1
 Number of Electrons    NEL             ....   64
 Basis Dimension        Dim             ....  132

MULLIKEN ATOMIC CHARGES
-----------------------
   0 O :   -0.287073
   1 S :    0.731578
   2 O :   -0.399804
   3 O :   -0.377875
   4 C :    0.008052
   5 C :   -0.074019
   6 C :   -0.015511
   7 H :    0.191628
   8 H :    0.045109
   9 H :    0.068837
  10 H :    0.034360
  11 H :    0.029621
  12 H :    0.045097
Sum of atomic charges:    0.0000000

LOEWDIN ATOMIC CHARGES
----------------------
   0 O :   -0.223039
   1 S :    1.107790
   2 O :   -0.462318
   3 O :   -0.440204
   4 C :   -0.155327
   5 C :   -0.051511
   6 C :   -0.033846
   7 H :    0.078804
   8 H :    0.037100
   9 H :    0.046299
  10 H :    0.035580
  11 H :    0.027075
  12 H :    0.033597

  Mayer bond orders larger than 0.1
B(  0-O ,  1-S ) :   0.9839 B(  0-O ,  7-H ) :   0.9446 B(  1-S ,  2-O ) :   1.7669
B(  1-S ,  3-O ) :   1.8074 B(  1-S ,  4-C ) :   0.8672 B(  4-C ,  5-C ) :   1.0414
B(  4-C ,  8-H ) :   0.9139 B(  4-C ,  9-H ) :   0.9009 B(  5-C ,  6-C ) :   1.9985
B(  5-C , 10-H ) :   0.9556 B(  6-C , 11-H ) :   0.9513 B(  6-C , 12-H ) :   0.9479

FINAL SINGLE POINT ENERGY      -740.760127889681

DIPOLE MOMENT
-------------
                                X             Y             Z
Electronic contribution:     -4.31557       5.86853      -0.27854
Nuclear contribution   :      3.96809      -7.13199       0.19805
                        -----------------------------------------
Total Dipole Moment    :     -0.34749      -1.26346      -0.08049
                        -----------------------------------------
Magnitude (a.u.)       :      1.31285
Magnitude (Debye)      :      3.33699

                             ****ORCA TERMINATED NORMALLY****
TOTAL RUN TIME: 0 days 0 hours 0 minutes 6 seconds 17 msec
