                         Program Version 3.0.3 - RELEASE   -
|  1> ! RI PBE def2-SVP def2-SVP/J NBO PAL2
|  2> % maxcore 2000
|  3> % output
|  4>     # printlevel mini
|  5>     print[ P_Basis ] 0
|  6>     print[ P_SCFInfo ] 1
|  7>     print[ P_SCFIterInfo ] 1
|  8>     print[ P_OrbEn ] 0
|  9>     print[ P_Cartesian ] 0
| 10> end
| 11> *xyz 0 1
| 12>  O        1.1459150000    -0.0390080000     0.1073680000
| 13>  S        2.7234260000     0.1092670000    -0.0830380000
| 14>  O        3.0347990000    -0.3118900000    -1.4110930000
| 15>  O        3.0882920000     1.3892580000     0.4089460000
| 16>  C        3.2713930000    -1.1362320000     1.0880670000
| 17>  C        4.7119830000    -1.1946730000     1.1625730000
| 18>  C        5.9075210000    -1.2440330000     1.2202750000
| 19>  H        0.7877720000    -0.4589410000    -0.6862820000
| 20>  H        2.8449840000    -2.0852340000     0.7542440000
| 21>  H        2.8248760000    -0.8617500000     2.0470830000
| 22>  H        6.9703680000    -1.2823140000     1.2697070000
| 23> *
| 24>
| 25>                          ****END OF INPUT****
 Total Charge           Charge          ....    0
 Multiplicity           Mult            ....    1
 Number of Electrons    NEL             ....   62
 Basis Dimension        Dim             ....  122

MULLIKEN ATOMIC CHARGES
-----------------------
   0 O :   -0.281330
   1 S :    0.732273
   2 O :   -0.389549
   3 O :   -0.359675
   4 C :    0.024231
   5 C :    0.334516
   6 C :   -0.422319
   7 H :    0.194161
   8 H :    0.068090
   9 H :    0.085851
  10 H :    0.013751
Sum of atomic charges:    0.0000000

LOEWDIN ATOMIC CHARGES
----------------------
   0 O :   -0.218711
   1 S :    1.107875
   2 O :   -0.453010
   3 O :   -0.424943
   4 C :   -0.161318
   5 C :   -0.052395
   6 C :   -0.034309
   7 H :    0.080871
   8 H :    0.054015
   9 H :    0.060480
  10 H :    0.041445

  Mayer bond orders larger than 0.1
B(  0-O ,  1-S ) :   0.9879 B(  0-O ,  7-H ) :   0.9426 B(  1-S ,  2-O ) :   1.7710
B(  1-S ,  3-O ) :   1.8291 B(  1-S ,  4-C ) :   0.8524 B(  4-C ,  5-C ) :   1.0410
B(  4-C ,  8-H ) :   0.8880 B(  4-C ,  9-H ) :   0.8879 B(  5-C ,  6-C ) :   2.3814
B(  5-C , 10-H ) :  -0.1035 B(  6-C , 10-H ) :   1.0954

FINAL SINGLE POINT ENERGY      -739.510916879432

DIPOLE MOMENT
-------------
                                X             Y             Z
Electronic contribution:     -1.04794       2.39186      -1.91127
Nuclear contribution   :      0.58109      -3.52203       2.28246
                        -----------------------------------------
Total Dipole Moment    :     -0.46685      -1.13017       0.37119
                        -----------------------------------------
Magnitude (a.u.)       :      1.27790
Magnitude (Debye)      :      3.24816

                             ****ORCA TERMINATED NORMALLY****
TOTAL RUN TIME: 0 days 0 hours 0 minutes 5 seconds 645 msec
