                         Program Version 3.0.3 - RELEASE   -
|  1> ! RI PBE def2-SVP def2-SVP/J NBO PAL2
|  2> % maxcore 2000
|  3> % output
|  4>     # printlevel mini
|  5>     print[ P_Basis ] 0
|  6>     print[ P_SCFInfo ] 1
|  7>     print[ P_SCFIterInfo ] 1
|  8>     print[ P_OrbEn ] 0
|  9>     print[ P_Cartesian ] 0
| 10> end
| 11> *xyz 0 1
| 12>  S        1.6394670000    -0.0082320000     1.6108350000
| 13>  C        2.6596940000    -0.0526560000     0.3152900000
| 14>  N        3.1443460000    -1.1643200000    -0.3008380000
| 15>  C        4.1911150000    -0.8627790000    -1.2205870000
| 16>  C        5.3941510000    -0.1277930000    -0.6929850000
| 17>  C        4.2224770000     0.6375450000    -1.2473350000
| 18>  N        3.1899060000     1.0151320000    -0.3396940000
| 19>  H        3.0059290000    -2.0622960000     0.1271520000
| 20>  H        4.2546080000    -1.4678000000    -2.1158370000
| 21>  H        6.2855030000    -0.1573740000    -1.3071410000
| 22>  H        5.5565470000    -0.1120960000     0.3778550000
| 23>  H        4.3105240000     1.2071040000    -2.1635260000
| 24>  H        3.0894450000     1.9327840000     0.0559290000
| 25> *
| 26>
| 27>                          ****END OF INPUT****
 Total Charge           Charge          ....    0
 Multiplicity           Mult            ....    1
 Number of Electrons    NEL             ....   60
 Basis Dimension        Dim             ....  132

MULLIKEN ATOMIC CHARGES
-----------------------
   0 S :   -0.278165
   1 C :    0.023229
   2 N :   -0.083612
   3 C :   -0.010211
   4 C :    0.043681
   5 C :   -0.009796
   6 N :   -0.084516
   7 H :    0.122263
   8 H :    0.035305
   9 H :    0.040267
  10 H :    0.044175
  11 H :    0.034822
  12 H :    0.122557
Sum of atomic charges:   -0.0000000

LOEWDIN ATOMIC CHARGES
----------------------
   0 S :   -0.150932
   1 C :   -0.129989
   2 N :    0.013956
   3 C :    0.014429
   4 C :   -0.061727
   5 C :    0.014588
   6 N :    0.013730
   7 H :    0.079460
   8 H :    0.026757
   9 H :    0.036411
  10 H :    0.037131
  11 H :    0.026651
  12 H :    0.079536

  Mayer bond orders larger than 0.1
B(  0-S ,  1-C ) :   1.6210 B(  1-C ,  2-N ) :   1.1649 B(  1-C ,  6-N ) :   1.1649
B(  2-N ,  3-C ) :   1.0625 B(  2-N ,  7-H ) :   0.9374 B(  3-C ,  4-C ) :   0.9731
B(  3-C ,  5-C ) :   0.9297 B(  3-C ,  8-H ) :   0.9474 B(  4-C ,  5-C ) :   0.9732
B(  4-C ,  9-H ) :   0.9367 B(  4-C , 10-H ) :   0.9113 B(  5-C ,  6-N ) :   1.0626
B(  5-C , 11-H ) :   0.9477 B(  6-N , 12-H ) :   0.9370

FINAL SINGLE POINT ENERGY      -662.898513545197

DIPOLE MOMENT
-------------
                                X             Y             Z
Electronic contribution:     -5.41934       0.17711       3.60641
Nuclear contribution   :      6.87334      -0.23163      -4.93346
                        -----------------------------------------
Total Dipole Moment    :      1.45401      -0.05452      -1.32705
                        -----------------------------------------
Magnitude (a.u.)       :      1.96931
Magnitude (Debye)      :      5.00558

                             ****ORCA TERMINATED NORMALLY****
TOTAL RUN TIME: 0 days 0 hours 0 minutes 6 seconds 360 msec
