                         Program Version 3.0.3 - RELEASE   -
|  1> ! RI PBE def2-SVP def2-SVP/J NBO PAL2
|  2> % maxcore 2000
|  3> % output
|  4>     # printlevel mini
|  5>     print[ P_Basis ] 0
|  6>     print[ P_SCFInfo ] 1
|  7>     print[ P_SCFIterInfo ] 1
|  8>     print[ P_OrbEn ] 0
|  9>     print[ P_Cartesian ] 0
| 10> end
| 11> *xyz 0 1
| 12>  S        1.6069420000     0.3593140000     0.9711720000
| 13>  C        2.9570870000    -0.1034200000     0.1745370000
| 14>  N        3.1649780000    -1.2907170000    -0.4256960000
| 15>  C        4.4556800000    -1.4415230000    -1.0532430000
| 16>  C        5.0177110000    -0.0488590000    -0.8799670000
| 17>  C        4.2614940000     1.0936810000    -1.4173760000
| 18>  N        4.1098330000     0.7080040000    -0.0058240000
| 19>  H        2.4577570000    -2.0048070000    -0.3966010000
| 20>  H        4.3668200000    -1.7512540000    -2.0996120000
| 21>  H        5.0770310000    -2.1764490000    -0.5299840000
| 22>  H        6.0747400000     0.0557610000    -0.6672010000
| 23>  H        3.4184800000     0.8931780000    -2.0717380000
| 24>  H        4.7585580000     2.0437720000    -1.5716670000
| 25> *
| 26>
| 27>                          ****END OF INPUT****
 Total Charge           Charge          ....    0
 Multiplicity           Mult            ....    1
 Number of Electrons    NEL             ....   60
 Basis Dimension        Dim             ....  132

MULLIKEN ATOMIC CHARGES
-----------------------
   0 S :   -0.210907
   1 C :    0.022076
   2 N :   -0.141438
   3 C :    0.248233
   4 C :   -0.153722
   5 C :    0.113409
   6 N :   -0.203397
   7 H :    0.117293
   8 H :    0.033360
   9 H :    0.035079
  10 H :    0.043563
  11 H :    0.046696
  12 H :    0.049756
Sum of atomic charges:    0.0000000

LOEWDIN ATOMIC CHARGES
----------------------
   0 S :   -0.078687
   1 C :   -0.140433
   2 N :    0.018723
   3 C :    0.030491
   4 C :   -0.001767
   5 C :    0.037294
   6 N :   -0.088391
   7 H :    0.078044
   8 H :    0.029037
   9 H :    0.028733
  10 H :    0.030083
  11 H :    0.025434
  12 H :    0.031442

  Mayer bond orders larger than 0.1
B(  0-S ,  1-C ) :   1.7132 B(  0-S ,  2-N ) :   0.1211 B(  1-C ,  2-N ) :   1.2214
B(  1-C ,  6-N ) :   1.0343 B(  2-N ,  3-C ) :   0.9969 B(  2-N ,  7-H ) :   0.9257
B(  3-C ,  4-C ) :   1.0302 B(  3-C ,  8-H ) :   0.9233 B(  3-C ,  9-H ) :   0.9278
B(  4-C ,  5-C ) :   1.0470 B(  4-C ,  6-N ) :   0.9276 B(  4-C , 10-H ) :   0.9428
B(  5-C ,  6-N ) :   0.9370 B(  5-C , 11-H ) :   0.9235 B(  5-C , 12-H ) :   0.9462

FINAL SINGLE POINT ENERGY      -662.875821537419

DIPOLE MOMENT
-------------
                                X             Y             Z
Electronic contribution:     -4.67673       1.39146       4.48038
Nuclear contribution   :      5.84037      -2.49580      -5.90854
                        -----------------------------------------
Total Dipole Moment    :      1.16364      -1.10434      -1.42815
                        -----------------------------------------
Magnitude (a.u.)       :      2.14785
Magnitude (Debye)      :      5.45939

                             ****ORCA TERMINATED NORMALLY****
TOTAL RUN TIME: 0 days 0 hours 0 minutes 6 seconds 714 msec
