                         Program Version 3.0.3 - RELEASE   -
|  1> ! RI PBE def2-SVP def2-SVP/J NBO PAL2
|  2> % maxcore 2000
|  3> % output
|  4>     # printlevel mini
|  5>     print[ P_Basis ] 0
|  6>     print[ P_SCFInfo ] 1
|  7>     print[ P_SCFIterInfo ] 1
|  8>     print[ P_OrbEn ] 0
|  9>     print[ P_Cartesian ] 0
| 10> end
| 11> *xyz 0 1
| 12>  S        0.7656180000    -0.1238790000     0.0164150000
| 13>  C        2.4255990000    -0.1055030000     0.0099570000
| 14>  N        3.1421400000     1.0309700000    -0.0008610000
| 15>  C        4.5898590000     1.1742010000    -0.0077020000
| 16>  C        5.2490040000    -0.1636790000    -0.0003020000
| 17>  C        4.5302110000    -1.2802410000     0.0104910000
| 18>  N        3.1467400000    -1.2589530000     0.0154210000
| 19>  H        2.5763100000     1.8628440000    -0.0046570000
| 20>  H        4.9032500000     1.7615320000     0.8663400000
| 21>  H        4.8962970000     1.7483820000    -0.8928870000
| 22>  H        6.3288310000    -0.2091000000    -0.0039400000
| 23>  H        4.9783870000    -2.2652080000     0.0160360000
| 24>  H        2.6067340000    -2.1056670000     0.0236000000
| 25> *
| 26>
| 27>                          ****END OF INPUT****
 Total Charge           Charge          ....    0
 Multiplicity           Mult            ....    1
 Number of Electrons    NEL             ....   60
 Basis Dimension        Dim             ....  132

MULLIKEN ATOMIC CHARGES
-----------------------
   0 S :   -0.273057
   1 C :    0.001271
   2 N :   -0.135348
   3 C :    0.224089
   4 C :   -0.197337
   5 C :    0.089141
   6 N :   -0.042036
   7 H :    0.121897
   8 H :    0.032874
   9 H :    0.032622
  10 H :    0.017158
  11 H :    0.008348
  12 H :    0.120377
Sum of atomic charges:    0.0000000

LOEWDIN ATOMIC CHARGES
----------------------
   0 S :   -0.148795
   1 C :   -0.115457
   2 N :    0.010383
   3 C :    0.034394
   4 C :   -0.101512
   5 C :    0.004553
   6 N :    0.034941
   7 H :    0.077494
   8 H :    0.026906
   9 H :    0.026828
  10 H :    0.035907
  11 H :    0.031691
  12 H :    0.082667

  Mayer bond orders larger than 0.1
B(  0-S ,  1-C ) :   1.5812 B(  1-C ,  2-N ) :   1.2557 B(  1-C ,  6-N ) :   1.1574
B(  2-N ,  3-C ) :   0.9797 B(  2-N ,  7-H ) :   0.9137 B(  3-C ,  4-C ) :   1.0406
B(  3-C ,  8-H ) :   0.9248 B(  3-C ,  9-H ) :   0.9248 B(  4-C ,  5-C ) :   1.8153
B(  4-C , 10-H ) :   0.9624 B(  5-C ,  6-N ) :   1.1101 B(  5-C , 11-H ) :   0.9583
B(  6-N , 12-H ) :   0.9122

FINAL SINGLE POINT ENERGY      -662.918832029865

DIPOLE MOMENT
-------------
                                X             Y             Z
Electronic contribution:     -6.26650      -1.25131       0.03312
Nuclear contribution   :      7.92433       1.28048      -0.03964
                        -----------------------------------------
Total Dipole Moment    :      1.65782       0.02917      -0.00652
                        -----------------------------------------
Magnitude (a.u.)       :      1.65809
Magnitude (Debye)      :      4.21454

                             ****ORCA TERMINATED NORMALLY****
TOTAL RUN TIME: 0 days 0 hours 0 minutes 6 seconds 644 msec
